[Molden Format]
[Atoms] Angs
E+       1       9     0.00000000     0.00000000     4.20000000
E+       2       3     0.00000000     0.00000000     0.00000000
E+       3       9    -1.70200000     0.00000000     0.00000000
E+       4       9     1.70200000     0.00000000     0.00000000
[GTO]
  1 0
s  1 1.00
   1.7064719900E-02   1.0000000000E+00
s  1 1.00
   4.3427005944E-02   1.0000000000E+00
s  1 1.00
   1.1051484327E-01   1.0000000000E+00
s  1 1.00
   2.8124275018E-01   1.0000000000E+00
s  1 1.00
   7.1571819843E-01   1.0000000000E+00
s  1 1.00
   1.8213893131E+00   1.0000000000E+00
p  1 1.00
   4.9631294600E-02   1.0000000000E+00
p  1 1.00
   1.2420746812E-01   1.0000000000E+00
p  1 1.00
   3.1084208586E-01   1.0000000000E+00
p  1 1.00
   7.7791459566E-01   1.0000000000E+00
d  1 1.00
   9.5064809100E-02   1.0000000000E+00
d  1 1.00
   2.3367772930E-01   1.0000000000E+00
d  1 1.00
   5.7440057670E-01   1.0000000000E+00
f  1 1.00
   1.5956751480E-01   1.0000000000E+00
f  1 1.00
   4.2730645850E-01   1.0000000000E+00
 
  2 0
s  1 1.00
   1.7064719900E-02   1.0000000000E+00
s  1 1.00
   4.3427005944E-02   1.0000000000E+00
s  1 1.00
   1.1051484327E-01   1.0000000000E+00
s  1 1.00
   2.8124275018E-01   1.0000000000E+00
s  1 1.00
   7.1571819843E-01   1.0000000000E+00
s  1 1.00
   1.8213893131E+00   1.0000000000E+00
p  1 1.00
   4.9631294600E-02   1.0000000000E+00
p  1 1.00
   1.2420746812E-01   1.0000000000E+00
p  1 1.00
   3.1084208586E-01   1.0000000000E+00
p  1 1.00
   7.7791459566E-01   1.0000000000E+00
d  1 1.00
   9.5064809100E-02   1.0000000000E+00
d  1 1.00
   2.3367772930E-01   1.0000000000E+00
d  1 1.00
   5.7440057670E-01   1.0000000000E+00
f  1 1.00
   1.5956751480E-01   1.0000000000E+00
f  1 1.00
   4.2730645850E-01   1.0000000000E+00
 
  3 0
s  1 1.00
   1.7064719900E-02   1.0000000000E+00
s  1 1.00
   4.3427005944E-02   1.0000000000E+00
s  1 1.00
   1.1051484327E-01   1.0000000000E+00
s  1 1.00
   2.8124275018E-01   1.0000000000E+00
s  1 1.00
   7.1571819843E-01   1.0000000000E+00
s  1 1.00
   1.8213893131E+00   1.0000000000E+00
p  1 1.00
   4.9631294600E-02   1.0000000000E+00
p  1 1.00
   1.2420746812E-01   1.0000000000E+00
p  1 1.00
   3.1084208586E-01   1.0000000000E+00
p  1 1.00
   7.7791459566E-01   1.0000000000E+00
d  1 1.00
   9.5064809100E-02   1.0000000000E+00
d  1 1.00
   2.3367772930E-01   1.0000000000E+00
d  1 1.00
   5.7440057670E-01   1.0000000000E+00
f  1 1.00
   1.5956751480E-01   1.0000000000E+00
f  1 1.00
   4.2730645850E-01   1.0000000000E+00
 
  4 0
s  1 1.00
   1.7064719900E-02   1.0000000000E+00
s  1 1.00
   4.3427005944E-02   1.0000000000E+00
s  1 1.00
   1.1051484327E-01   1.0000000000E+00
s  1 1.00
   2.8124275018E-01   1.0000000000E+00
s  1 1.00
   7.1571819843E-01   1.0000000000E+00
s  1 1.00
   1.8213893131E+00   1.0000000000E+00
p  1 1.00
   4.9631294600E-02   1.0000000000E+00
p  1 1.00
   1.2420746812E-01   1.0000000000E+00
p  1 1.00
   3.1084208586E-01   1.0000000000E+00
p  1 1.00
   7.7791459566E-01   1.0000000000E+00
d  1 1.00
   9.5064809100E-02   1.0000000000E+00
d  1 1.00
   2.3367772930E-01   1.0000000000E+00
d  1 1.00
   5.7440057670E-01   1.0000000000E+00
f  1 1.00
   1.5956751480E-01   1.0000000000E+00
f  1 1.00
   4.2730645850E-01   1.0000000000E+00
 
 
[MO]
Ene=    -3.05255E-01
Spin= Alpha
Occup=   1.0000000000
   1       0.06338269
   2       0.69823243
   3       0.28579203
   4      -0.07427269
   5      -0.09437211
   6      -0.01218959
   7      -0.00000000
   8       0.00000000
   9      -0.18379460
  10       0.00000000
  11       0.00000000
  12      -0.04429863
  13       0.00000000
  14      -0.00000000
  15      -0.01639403
  16      -0.00000000
  17      -0.00000000
  18       0.01270552
  19      -0.01953210
  20      -0.03071080
  21       0.01466176
  22       0.00000000
  23       0.00000000
  24      -0.00000000
  25      -0.02773526
  26      -0.02628008
  27      -0.03070322
  28       0.00000000
  29      -0.00000000
  30       0.00000000
  31      -0.01377151
  32      -0.01395273
  33      -0.01340096
  34      -0.00000000
  35       0.00000000
  36      -0.00000000
  37      -0.00000000
  38      -0.00000000
  39      -0.00275686
  40      -0.00000000
  41      -0.00000000
  42      -0.00178544
  43      -0.00000000
  44      -0.00000000
  45       0.00140371
  46      -0.00000000
  47      -0.00000000
  48      -0.00000000
  49       0.00910965
  50      -0.00000000
  51      -0.00000000
  52       0.00426155
  53      -0.00000000
  54      -0.00000000
  55       0.00377745
  56       0.00000000
  57       0.00596554
  58      -0.22464576
  59      -0.07106218
  60      -0.01005849
  61      -0.00823563
  62      -0.00255904
  63      -0.00000000
  64       0.00000000
  65      -0.02508276
  66       0.00000000
  67       0.00000000
  68      -0.01626920
  69      -0.00000000
  70      -0.00000000
  71      -0.00361685
  72      -0.00000000
  73       0.00000000
  74      -0.00408219
  75       0.00749233
  76      -0.00942123
  77      -0.02126494
  78       0.00000000
  79      -0.00000000
  80      -0.00000000
  81      -0.00858999
  82      -0.00426041
  83      -0.00934062
  84       0.00000000
  85      -0.00000000
  86       0.00000000
  87      -0.00338968
  88      -0.00334907
  89      -0.00307251
  90      -0.00000000
  91       0.00000000
  92      -0.00000000
  93       0.00000000
  94      -0.00000000
  95      -0.01904598
  96      -0.00000000
  97       0.00000000
  98      -0.01033931
  99      -0.00000000
 100      -0.00000000
 101      -0.00673800
 102       0.00000000
 103      -0.00000000
 104       0.00000000
 105      -0.00628366
 106      -0.00000000
 107       0.00000000
 108      -0.00287673
 109      -0.00000000
 110       0.00000000
 111      -0.00293327
 112      -0.00000000
 113       0.00768691
 114       0.27028051
 115       0.03305240
 116      -0.01772209
 117      -0.01925448
 118      -0.00217777
 119       0.06415334
 120       0.00000000
 121       0.07886930
 122       0.00022041
 123      -0.00000000
 124       0.02169492
 125       0.00218978
 126      -0.00000000
 127       0.00762353
 128      -0.00013500
 129       0.00000000
 130      -0.00586381
 131      -0.00774609
 132      -0.02282502
 133       0.00535121
 134       0.00000000
 135       0.01837723
 136       0.00000000
 137      -0.00930115
 138      -0.00850122
 139      -0.01074349
 140      -0.00000000
 141       0.00094564
 142       0.00000000
 143      -0.00277489
 144      -0.00356969
 145      -0.00353262
 146       0.00000000
 147      -0.00023331
 148       0.00000000
 149       0.00221414
 150       0.00000000
 151       0.00264583
 152      -0.00026445
 153       0.00000000
 154       0.00256612
 155       0.00333251
 156       0.00000000
 157      -0.00149767
 158       0.00000000
 159       0.00040416
 160       0.00000000
 161      -0.00460824
 162       0.00008375
 163       0.00000000
 164      -0.00201286
 165      -0.00018552
 166       0.00000000
 167      -0.00174719
 168      -0.00000000
 169       0.00768691
 170       0.27028051
 171       0.03305240
 172      -0.01772209
 173      -0.01925448
 174      -0.00217777
 175      -0.06415334
 176      -0.00000000
 177       0.07886930
 178      -0.00022041
 179       0.00000000
 180       0.02169492
 181      -0.00218978
 182      -0.00000000
 183       0.00762353
 184       0.00013500
 185      -0.00000000
 186      -0.00586381
 187      -0.00774609
 188      -0.02282502
 189       0.00535121
 190       0.00000000
 191      -0.01837723
 192      -0.00000000
 193      -0.00930115
 194      -0.00850122
 195      -0.01074349
 196       0.00000000
 197      -0.00094564
 198      -0.00000000
 199      -0.00277489
 200      -0.00356969
 201      -0.00353262
 202      -0.00000000
 203       0.00023331
 204       0.00000000
 205      -0.00221414
 206      -0.00000000
 207       0.00264583
 208       0.00026445
 209      -0.00000000
 210       0.00256612
 211      -0.00333251
 212      -0.00000000
 213      -0.00149767
 214       0.00000000
 215      -0.00040416
 216      -0.00000000
 217      -0.00460824
 218      -0.00008375
 219      -0.00000000
 220      -0.00201286
 221       0.00018552
 222      -0.00000000
 223      -0.00174719
 224      -0.00000000
Ene=    -2.34277E-01
Spin= Alpha
Occup=   0.0000000000
   1      -0.00000000
   2       0.00000000
   3       0.00000000
   4       0.00000000
   5      -0.00000000
   6      -0.00000000
   7       0.47946261
   8      -0.00000000
   9       0.00000000
  10       0.24642413
  11      -0.00000000
  12       0.00000000
  13       0.01359948
  14      -0.00000000
  15      -0.00000000
  16      -0.03949411
  17       0.00000000
  18      -0.00000000
  19      -0.00000000
  20      -0.00000000
  21      -0.00000000
  22       0.00000000
  23      -0.07401638
  24       0.00000000
  25      -0.00000000
  26      -0.00000000
  27      -0.00000000
  28      -0.00000000
  29       0.00831696
  30      -0.00000000
  31      -0.00000000
  32      -0.00000000
  33      -0.00000000
  34       0.00000000
  35      -0.00117690
  36       0.00000000
  37      -0.10677895
  38       0.00000000
  39      -0.00000000
  40      -0.04966805
  41       0.00000000
  42      -0.00000000
  43      -0.04181988
  44       0.00000000
  45      -0.00000000
  46       0.00000000
  47      -0.04833143
  48       0.00000000
  49      -0.00000000
  50      -0.02128429
  51       0.00000000
  52      -0.00000000
  53      -0.02199653
  54       0.00000000
  55      -0.00000000
  56      -0.00000000
  57       0.00000000
  58      -0.00000000
  59      -0.00000000
  60       0.00000000
  61       0.00000000
  62      -0.00000000
  63      -1.09767391
  64       0.00000000
  65      -0.00000000
  66       0.05986563
  67       0.00000000
  68      -0.00000000
  69      -0.00849108
  70       0.00000000
  71      -0.00000000
  72      -0.00434242
  73      -0.00000000
  74       0.00000000
  75      -0.00000000
  76       0.00000000
  77       0.00000000
  78       0.00000000
  79      -0.27529109
  80      -0.00000000
  81       0.00000000
  82       0.00000000
  83       0.00000000
  84       0.00000000
  85      -0.01254176
  86       0.00000000
  87      -0.00000000
  88       0.00000000
  89       0.00000000
  90      -0.00000000
  91      -0.00013451
  92      -0.00000000
  93      -0.01725696
  94      -0.00000000
  95       0.00000000
  96      -0.00972651
  97       0.00000000
  98      -0.00000000
  99      -0.04710008
 100      -0.00000000
 101       0.00000000
 102       0.00000000
 103      -0.00653263
 104      -0.00000000
 105       0.00000000
 106      -0.00487527
 107      -0.00000000
 108       0.00000000
 109      -0.00102496
 110      -0.00000000
 111       0.00000000
 112      -0.00000000
 113      -0.21561615
 114      -1.54214702
 115      -0.16443535
 116       0.04578646
 117       0.02753403
 118       0.00441427
 119      -0.39022138
 120      -0.00000000
 121      -0.33544926
 122       0.07499759
 123      -0.00000000
 124      -0.12095254
 125      -0.00209261
 126       0.00000000
 127      -0.01510557
 128      -0.00838575
 129      -0.00000000
 130       0.00875094
 131      -0.04476896
 132       0.00427587
 133      -0.07592734
 134      -0.00000000
 135      -0.11323779
 136       0.00000000
 137       0.01572775
 138       0.00205871
 139       0.00721178
 140      -0.00000000
 141      -0.00904742
 142       0.00000000
 143       0.00144912
 144       0.00374570
 145       0.00250199
 146       0.00000000
 147       0.00118721
 148      -0.00000000
 149      -0.03928716
 150      -0.00000000
 151      -0.01226403
 152      -0.01345230
 153      -0.00000000
 154      -0.02672117
 155      -0.02665713
 156      -0.00000000
 157      -0.00088857
 158       0.00000000
 159      -0.00934103
 160      -0.00000000
 161       0.00707125
 162      -0.00424028
 163      -0.00000000
 164       0.00413037
 165      -0.00408846
 166      -0.00000000
 167       0.00232161
 168      -0.00000000
 169       0.21561615
 170       1.54214702
 171       0.16443535
 172      -0.04578646
 173      -0.02753403
 174      -0.00441427
 175      -0.39022138
 176      -0.00000000
 177       0.33544926
 178       0.07499759
 179      -0.00000000
 180       0.12095254
 181      -0.00209261
 182       0.00000000
 183       0.01510557
 184      -0.00838575
 185       0.00000000
 186      -0.00875094
 187       0.04476896
 188      -0.00427587
 189       0.07592734
 190       0.00000000
 191      -0.11323779
 192      -0.00000000
 193      -0.01572775
 194      -0.00205871
 195      -0.00721178
 196       0.00000000
 197      -0.00904742
 198       0.00000000
 199      -0.00144912
 200      -0.00374570
 201      -0.00250199
 202      -0.00000000
 203       0.00118721
 204      -0.00000000
 205      -0.03928716
 206       0.00000000
 207       0.01226403
 208      -0.01345230
 209       0.00000000
 210       0.02672117
 211      -0.02665713
 212       0.00000000
 213       0.00088857
 214       0.00000000
 215      -0.00934103
 216       0.00000000
 217      -0.00707125
 218      -0.00424028
 219       0.00000000
 220      -0.00413037
 221      -0.00408846
 222       0.00000000
 223      -0.00232161
 224      -0.00000000
Ene=    -2.30469E-01
Spin= Alpha
Occup=   0.0000000000
   1      -0.17605849
   2      -0.50091547
   3      -0.24278710
   4       0.05739071
   5       0.06795502
   6       0.00804124
   7       0.00000000
   8       0.00000000
   9      -0.26703696
  10       0.00000000
  11      -0.00000000
  12      -0.11790673
  13       0.00000000
  14       0.00000000
  15      -0.01738413
  16      -0.00000000
  17      -0.00000000
  18       0.02402531
  19       0.00154055
  20       0.00254781
  21       0.05389202
  22       0.00000000
  23      -0.00000000
  24      -0.00000000
  25       0.02898981
  26       0.02716805
  27       0.02549321
  28      -0.00000000
  29      -0.00000000
  30      -0.00000000
  31       0.01079990
  32       0.01128009
  33       0.01110947
  34       0.00000000
  35       0.00000000
  36       0.00000000
  37      -0.00000000
  38       0.00000000
  39       0.03482852
  40      -0.00000000
  41       0.00000000
  42       0.01710843
  43      -0.00000000
  44       0.00000000
  45       0.01689474
  46      -0.00000000
  47      -0.00000000
  48      -0.00000000
  49       0.02427047
  50      -0.00000000
  51      -0.00000000
  52       0.01068540
  53      -0.00000000
  54      -0.00000000
  55       0.01089685
  56       0.00000000
  57       0.00810164
  58      -0.21036523
  59      -0.07683810
  60      -0.06032864
  61      -0.03190342
  62      -0.00552533
  63       0.00000000
  64      -0.00000000
  65       0.01205649
  66       0.00000000
  67       0.00000000
  68      -0.00379825
  69      -0.00000000
  70      -0.00000000
  71      -0.00705440
  72      -0.00000000
  73       0.00000000
  74      -0.00590777
  75      -0.01321995
  76      -0.06335787
  77      -0.05234145
  78       0.00000000
  79      -0.00000000
  80      -0.00000000
  81      -0.05208278
  82      -0.03389313
  83      -0.04051086
  84       0.00000000
  85      -0.00000000
  86       0.00000000
  87      -0.01171004
  88      -0.01184986
  89      -0.01077816
  90      -0.00000000
  91      -0.00000000
  92      -0.00000000
  93       0.00000000
  94      -0.00000000
  95      -0.03472561
  96      -0.00000000
  97       0.00000000
  98      -0.02031607
  99      -0.00000000
 100      -0.00000000
 101      -0.01597940
 102      -0.00000000
 103      -0.00000000
 104       0.00000000
 105      -0.01090303
 106      -0.00000000
 107      -0.00000000
 108      -0.00424554
 109      -0.00000000
 110       0.00000000
 111      -0.00467368
 112       0.00000000
 113       0.12225992
 114       0.70084762
 115       0.07860824
 116      -0.04854475
 117      -0.05476126
 118      -0.00576780
 119       0.09067757
 120       0.00000000
 121       0.16284154
 122       0.00605597
 123      -0.00000000
 124       0.07547084
 125      -0.00119303
 126       0.00000000
 127       0.00074315
 128       0.00272441
 129      -0.00000000
 130      -0.00995698
 131      -0.03712798
 132      -0.05789417
 133      -0.03629537
 134       0.00000000
 135       0.02412076
 136       0.00000000
 137      -0.02521085
 138      -0.02854335
 139      -0.03302648
 140      -0.00000000
 141      -0.00030402
 142      -0.00000000
 143      -0.00935408
 144      -0.01098189
 145      -0.01013541
 146       0.00000000
 147       0.00001828
 148       0.00000000
 149      -0.00272701
 150       0.00000000
 151      -0.03558398
 152      -0.00411455
 153       0.00000000
 154      -0.01034767
 155      -0.00355837
 156       0.00000000
 157      -0.01646037
 158       0.00000000
 159       0.00254263
 160      -0.00000000
 161      -0.01331885
 162       0.00068189
 163      -0.00000000
 164      -0.00676777
 165       0.00074945
 166      -0.00000000
 167      -0.00586357
 168       0.00000000
 169       0.12225992
 170       0.70084762
 171       0.07860824
 172      -0.04854475
 173      -0.05476126
 174      -0.00576780
 175      -0.09067757
 176      -0.00000000
 177       0.16284154
 178      -0.00605597
 179      -0.00000000
 180       0.07547084
 181       0.00119303
 182       0.00000000
 183       0.00074315
 184      -0.00272441
 185      -0.00000000
 186      -0.00995698
 187      -0.03712798
 188      -0.05789417
 189      -0.03629537
 190       0.00000000
 191      -0.02412076
 192       0.00000000
 193      -0.02521085
 194      -0.02854335
 195      -0.03302648
 196       0.00000000
 197       0.00030402
 198       0.00000000
 199      -0.00935408
 200      -0.01098189
 201      -0.01013541
 202      -0.00000000
 203      -0.00001828
 204      -0.00000000
 205       0.00272701
 206       0.00000000
 207      -0.03558398
 208       0.00411455
 209       0.00000000
 210      -0.01034767
 211       0.00355837
 212       0.00000000
 213      -0.01646037
 214      -0.00000000
 215      -0.00254263
 216       0.00000000
 217      -0.01331885
 218      -0.00068189
 219      -0.00000000
 220      -0.00676777
 221      -0.00074945
 222       0.00000000
 223      -0.00586357
 224       0.00000000
Ene=    -2.14718E-01
Spin= Alpha
Occup=   0.0000000000
   1       0.00000000
   2      -0.00000000
   3       0.00000000
   4       0.00000000
   5      -0.00000000
   6      -0.00000000
   7      -0.00000000
   8       0.86681163
   9       0.00000000
  10      -0.00000000
  11       0.53220634
  12      -0.00000000
  13       0.00000000
  14      -0.00609770
  15       0.00000000
  16       0.00000000
  17      -0.07033038
  18      -0.00000000
  19       0.00000000
  20      -0.00000000
  21      -0.00000000
  22      -0.00000000
  23      -0.00000000
  24      -0.12262301
  25      -0.00000000
  26      -0.00000000
  27      -0.00000000
  28       0.00000000
  29       0.00000000
  30       0.02580859
  31      -0.00000000
  32      -0.00000000
  33      -0.00000000
  34       0.00000000
  35      -0.00000000
  36      -0.00522250
  37       0.00000000
  38      -0.28542001
  39       0.00000000
  40       0.00000000
  41      -0.12369588
  42      -0.00000000
  43       0.00000000
  44      -0.11499221
  45       0.00000000
  46      -0.00000000
  47       0.00000000
  48      -0.10098695
  49      -0.00000000
  50       0.00000000
  51      -0.04591348
  52      -0.00000000
  53       0.00000000
  54      -0.04709002
  55      -0.00000000
  56       0.00000000
  57      -0.00000000
  58      -0.00000000
  59      -0.00000000
  60       0.00000000
  61       0.00000000
  62       0.00000000
  63      -0.00000000
  64       0.01023591
  65       0.00000000
  66      -0.00000000
  67       0.11205907
  68       0.00000000
  69       0.00000000
  70      -0.02345469
  71      -0.00000000
  72       0.00000000
  73      -0.01714716
  74      -0.00000000
  75      -0.00000000
  76       0.00000000
  77       0.00000000
  78      -0.00000000
  79      -0.00000000
  80       0.01274739
  81       0.00000000
  82       0.00000000
  83       0.00000000
  84       0.00000000
  85       0.00000000
  86      -0.01509009
  87       0.00000000
  88       0.00000000
  89       0.00000000
  90      -0.00000000
  91      -0.00000000
  92       0.00289685
  93      -0.00000000
  94      -0.12359485
  95      -0.00000000
  96       0.00000000
  97      -0.04962669
  98       0.00000000
  99       0.00000000
 100      -0.05663165
 101      -0.00000000
 102      -0.00000000
 103      -0.00000000
 104      -0.03433821
 105      -0.00000000
 106       0.00000000
 107      -0.01361523
 108      -0.00000000
 109       0.00000000
 110      -0.01576090
 111      -0.00000000
 112       0.00000000
 113       0.00000000
 114      -0.00000000
 115      -0.00000000
 116      -0.00000000
 117      -0.00000000
 118      -0.00000000
 119      -0.00000000
 120       0.25731664
 121      -0.00000000
 122      -0.00000000
 123       0.15967525
 124      -0.00000000
 125       0.00000000
 126      -0.00378381
 127       0.00000000
 128       0.00000000
 129      -0.02048327
 130      -0.00000000
 131      -0.00000000
 132      -0.00000000
 133      -0.00000000
 134       0.04541458
 135      -0.00000000
 136       0.05755848
 137      -0.00000000
 138      -0.00000000
 139      -0.00000000
 140      -0.00669793
 141      -0.00000000
 142      -0.01498347
 143      -0.00000000
 144      -0.00000000
 145      -0.00000000
 146       0.00045875
 147       0.00000000
 148       0.00310390
 149       0.00000000
 150      -0.09559553
 151      -0.00000000
 152       0.00000000
 153      -0.03110024
 154      -0.00000000
 155       0.00000000
 156      -0.03392395
 157      -0.00000000
 158       0.00234876
 159       0.00000000
 160      -0.03100995
 161      -0.00000000
 162       0.00000000
 163      -0.01672299
 164      -0.00000000
 165       0.00000000
 166      -0.01541939
 167      -0.00000000
 168       0.00023991
 169       0.00000000
 170       0.00000000
 171       0.00000000
 172       0.00000000
 173       0.00000000
 174       0.00000000
 175      -0.00000000
 176       0.25731664
 177      -0.00000000
 178      -0.00000000
 179       0.15967525
 180      -0.00000000
 181       0.00000000
 182      -0.00378381
 183       0.00000000
 184      -0.00000000
 185      -0.02048327
 186       0.00000000
 187       0.00000000
 188       0.00000000
 189       0.00000000
 190      -0.04541458
 191       0.00000000
 192       0.05755848
 193       0.00000000
 194       0.00000000
 195       0.00000000
 196       0.00669793
 197       0.00000000
 198      -0.01498347
 199       0.00000000
 200       0.00000000
 201       0.00000000
 202      -0.00045875
 203      -0.00000000
 204       0.00310390
 205       0.00000000
 206      -0.09559553
 207       0.00000000
 208       0.00000000
 209      -0.03110024
 210       0.00000000
 211       0.00000000
 212      -0.03392395
 213       0.00000000
 214      -0.00234876
 215      -0.00000000
 216      -0.03100995
 217       0.00000000
 218       0.00000000
 219      -0.01672299
 220       0.00000000
 221       0.00000000
 222      -0.01541939
 223       0.00000000
 224      -0.00023991
Ene=    -1.91021E-01
Spin= Alpha
Occup=   0.0000000000
   1       0.40408921
   2      -0.44999775
   3      -0.06329528
   4       0.03116368
   5       0.02410843
   6       0.00140093
   7       0.00000000
   8      -0.00000000
   9       0.59126538
  10       0.00000000
  11       0.00000000
  12       0.20501367
  13      -0.00000000
  14       0.00000000
  15       0.02761398
  16      -0.00000000
  17      -0.00000000
  18      -0.03921606
  19       0.07346292
  20       0.05830472
  21      -0.01377063
  22      -0.00000000
  23      -0.00000000
  24       0.00000000
  25       0.01950887
  26       0.02428652
  27       0.02934766
  28       0.00000000
  29      -0.00000000
  30      -0.00000000
  31       0.00709890
  32       0.00604941
  33       0.00538912
  34      -0.00000000
  35       0.00000000
  36       0.00000000
  37      -0.00000000
  38      -0.00000000
  39      -0.06012085
  40      -0.00000000
  41      -0.00000000
  42      -0.02895567
  43      -0.00000000
  44       0.00000000
  45      -0.02944687
  46       0.00000000
  47      -0.00000000
  48      -0.00000000
  49      -0.03971725
  50      -0.00000000
  51      -0.00000000
  52      -0.01754924
  53      -0.00000000
  54      -0.00000000
  55      -0.01749188
  56      -0.00000000
  57      -0.30657363
  58      -0.19049337
  59      -0.01589445
  60      -0.00518120
  61      -0.00680988
  62      -0.00158489
  63       0.00000000
  64       0.00000000
  65      -0.12933784
  66       0.00000000
  67       0.00000000
  68      -0.03833385
  69      -0.00000000
  70       0.00000000
  71       0.00839461
  72      -0.00000000
  73      -0.00000000
  74       0.00865761
  75      -0.05984364
  76       0.01707296
  77       0.00058274
  78       0.00000000
  79      -0.00000000
  80      -0.00000000
  81      -0.01059095
  82      -0.01021299
  83       0.00222370
  84       0.00000000
  85      -0.00000000
  86      -0.00000000
  87      -0.00262612
  88      -0.00168888
  89      -0.00305500
  90       0.00000000
  91       0.00000000
  92      -0.00000000
  93       0.00000000
  94       0.00000000
  95       0.04933184
  96      -0.00000000
  97       0.00000000
  98       0.00578769
  99      -0.00000000
 100       0.00000000
 101       0.02221012
 102       0.00000000
 103      -0.00000000
 104      -0.00000000
 105       0.01475343
 106      -0.00000000
 107      -0.00000000
 108       0.00611147
 109      -0.00000000
 110      -0.00000000
 111       0.00630590
 112      -0.00000000
 113       0.39999201
 114       0.25458918
 115       0.12770290
 116      -0.02473455
 117      -0.02899880
 118      -0.00388274
 119      -0.08694216
 120       0.00000000
 121      -0.07402959
 122      -0.01057226
 123       0.00000000
 124      -0.02731724
 125      -0.00707580
 126       0.00000000
 127      -0.00967537
 128       0.00789232
 129      -0.00000000
 130       0.01086623
 131      -0.01130117
 132       0.00789236
 133      -0.01716680
 134       0.00000000
 135      -0.00971665
 136       0.00000000
 137      -0.00762334
 138      -0.00948579
 139      -0.00809552
 140      -0.00000000
 141       0.00430687
 142      -0.00000000
 143      -0.00387276
 144      -0.00422015
 145      -0.00410025
 146      -0.00000000
 147       0.00002673
 148       0.00000000
 149       0.00090521
 150       0.00000000
 151       0.01020944
 152       0.00158273
 153       0.00000000
 154       0.00561253
 155      -0.00030155
 156       0.00000000
 157       0.00543278
 158       0.00000000
 159       0.00631665
 160      -0.00000000
 161       0.01091190
 162       0.00279720
 163      -0.00000000
 164       0.00554063
 165       0.00266285
 166      -0.00000000
 167       0.00492556
 168      -0.00000000
 169       0.39999201
 170       0.25458918
 171       0.12770290
 172      -0.02473455
 173      -0.02899880
 174      -0.00388274
 175       0.08694216
 176      -0.00000000
 177      -0.07402959
 178       0.01057226
 179       0.00000000
 180      -0.02731724
 181       0.00707580
 182      -0.00000000
 183      -0.00967537
 184      -0.00789232
 185      -0.00000000
 186       0.01086623
 187      -0.01130117
 188       0.00789236
 189      -0.01716680
 190       0.00000000
 191       0.00971664
 192      -0.00000000
 193      -0.00762334
 194      -0.00948579
 195      -0.00809552
 196       0.00000000
 197      -0.00430687
 198       0.00000000
 199      -0.00387276
 200      -0.00422015
 201      -0.00410025
 202      -0.00000000
 203      -0.00002673
 204       0.00000000
 205      -0.00090521
 206      -0.00000000
 207       0.01020944
 208      -0.00158273
 209      -0.00000000
 210       0.00561253
 211       0.00030155
 212      -0.00000000
 213       0.00543278
 214      -0.00000000
 215      -0.00631665
 216      -0.00000000
 217       0.01091190
 218      -0.00279720
 219      -0.00000000
 220       0.00554063
 221      -0.00266285
 222      -0.00000000
 223       0.00492556
 224      -0.00000000
Ene=    -1.83461E-01
Spin= Alpha
Occup=   0.0000000000
   1      -0.00000000
   2       0.00000000
   3       0.00000000
   4       0.00000000
   5      -0.00000000
   6      -0.00000000
   7       0.80808427
   8       0.00000000
   9      -0.00000000
  10       0.45233787
  11       0.00000000
  12       0.00000000
  13      -0.00471361
  14      -0.00000000
  15      -0.00000000
  16      -0.05991422
  17      -0.00000000
  18       0.00000000
  19      -0.00000000
  20      -0.00000000
  21      -0.00000000
  22      -0.00000000
  23      -0.02648458
  24      -0.00000000
  25      -0.00000000
  26      -0.00000000
  27      -0.00000000
  28       0.00000000
  29       0.00538120
  30       0.00000000
  31      -0.00000000
  32      -0.00000000
  33      -0.00000000
  34      -0.00000000
  35      -0.00131809
  36      -0.00000000
  37      -0.23240189
  38      -0.00000000
  39      -0.00000000
  40      -0.10611973
  41      -0.00000000
  42      -0.00000000
  43      -0.10560267
  44      -0.00000000
  45      -0.00000000
  46      -0.00000000
  47      -0.08566393
  48      -0.00000000
  49       0.00000000
  50      -0.03784508
  51      -0.00000000
  52       0.00000000
  53      -0.03826109
  54      -0.00000000
  55      -0.00000000
  56       0.00000000
  57      -0.00000000
  58      -0.00000000
  59      -0.00000000
  60       0.00000000
  61       0.00000000
  62       0.00000000
  63      -0.87155003
  64       0.00000000
  65       0.00000000
  66      -0.05457879
  67       0.00000000
  68       0.00000000
  69      -0.00407411
  70      -0.00000000
  71      -0.00000000
  72       0.00264044
  73       0.00000000
  74      -0.00000000
  75      -0.00000000
  76       0.00000000
  77       0.00000000
  78      -0.00000000
  79      -0.08719812
  80       0.00000000