[Molden Format]
[Atoms] Angs
F       1       9     0.00000000     0.00000000     4.20000000
F       2       9    -1.70200000     0.00000000     0.00000000
LI       3       3     0.00000000     0.00000000     0.00000000
F       4       9     1.70200000     0.00000000     0.00000000
[GTO]
  1 0
s  8 1.00
   1.9500000000E+04   5.0700000000E-04
   2.9230000000E+03   3.9230000000E-03
   6.6450000000E+02   2.0200000000E-02
   1.8750000000E+02   7.9010000000E-02
   6.0620000000E+01   2.3043900000E-01
   2.1420000000E+01   4.3287200000E-01
   7.9500000000E+00   3.4996400000E-01
   8.8150000000E-01  -7.8920000000E-03
s  8 1.00
   1.9500000000E+04  -1.1700000000E-04
   2.9230000000E+03  -9.1200000000E-04
   6.6450000000E+02  -4.7170000000E-03
   1.8750000000E+02  -1.9086000000E-02
   6.0620000000E+01  -5.9655000000E-02
   2.1420000000E+01  -1.4001000000E-01
   7.9500000000E+00  -1.7678200000E-01
   8.8150000000E-01   6.0504300000E-01
s  1 1.00
   2.2570000000E+00   1.0000000000E+00
s  1 1.00
   3.0410000000E-01   1.0000000000E+00
s  1 1.00
   9.1580000000E-02   1.0000000000E+00
p  3 1.00
   4.3880000000E+01   1.6665000000E-02
   9.9260000000E+00   1.0447200000E-01
   2.9300000000E+00   3.1726000000E-01
p  1 1.00
   9.1320000000E-01   1.0000000000E+00
p  1 1.00
   2.6720000000E-01   1.0000000000E+00
p  1 1.00
   7.3610000000E-02   1.0000000000E+00
d  1 1.00
   3.1070000000E+00   1.0000000000E+00
d  1 1.00
   8.5500000000E-01   1.0000000000E+00
d  1 1.00
   2.9200000000E-01   1.0000000000E+00
f  1 1.00
   1.9170000000E+00   1.0000000000E+00
f  1 1.00
   7.2400000000E-01   1.0000000000E+00
 
  2 0
s  8 1.00
   1.9500000000E+04   5.0700000000E-04
   2.9230000000E+03   3.9230000000E-03
   6.6450000000E+02   2.0200000000E-02
   1.8750000000E+02   7.9010000000E-02
   6.0620000000E+01   2.3043900000E-01
   2.1420000000E+01   4.3287200000E-01
   7.9500000000E+00   3.4996400000E-01
   8.8150000000E-01  -7.8920000000E-03
s  8 1.00
   1.9500000000E+04  -1.1700000000E-04
   2.9230000000E+03  -9.1200000000E-04
   6.6450000000E+02  -4.7170000000E-03
   1.8750000000E+02  -1.9086000000E-02
   6.0620000000E+01  -5.9655000000E-02
   2.1420000000E+01  -1.4001000000E-01
   7.9500000000E+00  -1.7678200000E-01
   8.8150000000E-01   6.0504300000E-01
s  1 1.00
   2.2570000000E+00   1.0000000000E+00
s  1 1.00
   3.0410000000E-01   1.0000000000E+00
s  1 1.00
   9.1580000000E-02   1.0000000000E+00
p  3 1.00
   4.3880000000E+01   1.6665000000E-02
   9.9260000000E+00   1.0447200000E-01
   2.9300000000E+00   3.1726000000E-01
p  1 1.00
   9.1320000000E-01   1.0000000000E+00
p  1 1.00
   2.6720000000E-01   1.0000000000E+00
p  1 1.00
   7.3610000000E-02   1.0000000000E+00
d  1 1.00
   3.1070000000E+00   1.0000000000E+00
d  1 1.00
   8.5500000000E-01   1.0000000000E+00
d  1 1.00
   2.9200000000E-01   1.0000000000E+00
f  1 1.00
   1.9170000000E+00   1.0000000000E+00
f  1 1.00
   7.2400000000E-01   1.0000000000E+00
 
  3 0
s  9 1.00
   5.9880000000E+03   1.3300000000E-04
   8.9890000000E+02   1.0250000000E-03
   2.0590000000E+02   5.2720000000E-03
   5.9240000000E+01   2.0929000000E-02
   1.9870000000E+01   6.6340000000E-02
   7.4060000000E+00   1.6577500000E-01
   2.9300000000E+00   3.1503800000E-01
   1.1890000000E+00   3.9352300000E-01
   4.7980000000E-01   1.9087000000E-01
s  9 1.00
   5.9880000000E+03  -2.1000000000E-05
   8.9890000000E+02  -1.6100000000E-04
   2.0590000000E+02  -8.2000000000E-04
   5.9240000000E+01  -3.3260000000E-03
   1.9870000000E+01  -1.0519000000E-02
   7.4060000000E+00  -2.8097000000E-02
   2.9300000000E+00  -5.5936000000E-02
   1.1890000000E+00  -9.9237000000E-02
   4.7980000000E-01  -1.1218900000E-01
s  1 1.00
   7.5090000000E-02   1.0000000000E+00
s  1 1.00
   2.8320000000E-02   1.0000000000E+00
s  1 1.00
   7.6000000000E-03   1.0000000000E+00
p  3 1.00
   3.2660000000E+00   8.6300000000E-03
   6.5110000000E-01   4.7538000000E-02
   1.6960000000E-01   2.0977200000E-01
p  1 1.00
   5.5780000000E-02   1.0000000000E+00
p  1 1.00
   2.0500000000E-02   1.0000000000E+00
p  1 1.00
   9.1000000000E-03   1.0000000000E+00
d  1 1.00
   1.8740000000E-01   1.0000000000E+00
d  1 1.00
   8.0100000000E-02   1.0000000000E+00
d  1 1.00
   3.7100000000E-02   1.0000000000E+00
f  1 1.00
   1.8290000000E-01   1.0000000000E+00
f  1 1.00
   8.1600000000E-02   1.0000000000E+00
 
  4 0
s  8 1.00
   1.9500000000E+04   5.0700000000E-04
   2.9230000000E+03   3.9230000000E-03
   6.6450000000E+02   2.0200000000E-02
   1.8750000000E+02   7.9010000000E-02
   6.0620000000E+01   2.3043900000E-01
   2.1420000000E+01   4.3287200000E-01
   7.9500000000E+00   3.4996400000E-01
   8.8150000000E-01  -7.8920000000E-03
s  8 1.00
   1.9500000000E+04  -1.1700000000E-04
   2.9230000000E+03  -9.1200000000E-04
   6.6450000000E+02  -4.7170000000E-03
   1.8750000000E+02  -1.9086000000E-02
   6.0620000000E+01  -5.9655000000E-02
   2.1420000000E+01  -1.4001000000E-01
   7.9500000000E+00  -1.7678200000E-01
   8.8150000000E-01   6.0504300000E-01
s  1 1.00
   2.2570000000E+00   1.0000000000E+00
s  1 1.00
   3.0410000000E-01   1.0000000000E+00
s  1 1.00
   9.1580000000E-02   1.0000000000E+00
p  3 1.00
   4.3880000000E+01   1.6665000000E-02
   9.9260000000E+00   1.0447200000E-01
   2.9300000000E+00   3.1726000000E-01
p  1 1.00
   9.1320000000E-01   1.0000000000E+00
p  1 1.00
   2.6720000000E-01   1.0000000000E+00
p  1 1.00
   7.3610000000E-02   1.0000000000E+00
d  1 1.00
   3.1070000000E+00   1.0000000000E+00
d  1 1.00
   8.5500000000E-01   1.0000000000E+00
d  1 1.00
   2.9200000000E-01   1.0000000000E+00
f  1 1.00
   1.9170000000E+00   1.0000000000E+00
f  1 1.00
   7.2400000000E-01   1.0000000000E+00
 
 
[MO]
Ene=    -2.59650E+01
Spin= Alpha
Occup=   1.0000000000
   1      -0.97120056
   2       0.01040681
   3      -0.04935805
   4       0.01787293
   5       0.00228601
   6       0.00000000
   7       0.00000000
   8       0.00008115
   9      -0.00000000
  10      -0.00000000
  11      -0.00010410
  12      -0.00000000
  13       0.00000000
  14       0.00014133
  15       0.00000000
  16      -0.00000000
  17      -0.00033015
  18      -0.00286400
  19      -0.00286378
  20      -0.00285594
  21      -0.00000000
  22       0.00000000
  23       0.00000000
  24      -0.00840952
  25      -0.00840815
  26      -0.00843753
  27       0.00000000
  28       0.00000000
  29      -0.00000000
  30      -0.00331663
  31      -0.00331863
  32      -0.00326137
  33      -0.00000000
  34       0.00000000
  35      -0.00000000
  36       0.00000000
  37       0.00000000
  38       0.00002391
  39       0.00000000
  40       0.00000000
  41       0.00001032
  42       0.00000000
  43      -0.00000000
  44       0.00000984
  45      -0.00000000
  46       0.00000000
  47      -0.00000000
  48      -0.00001259
  49       0.00000000
  50       0.00000000
  51      -0.00000499
  52       0.00000000
  53      -0.00000000
  54      -0.00000387
  55      -0.00000000
  56       0.00002181
  57       0.00001627
  58       0.00000388
  59       0.00001280
  60       0.00044286
  61      -0.00000514
  62      -0.00000000
  63      -0.00000385
  64       0.00001429
  65       0.00000000
  66       0.00000822
  67       0.00009182
  68       0.00000000
  69       0.00007356
  70       0.00013655
  71      -0.00000000
  72       0.00028683
  73      -0.00000200
  74      -0.00000161
  75      -0.00000121
  76       0.00000000
  77       0.00000171
  78      -0.00000000
  79       0.00000378
  80       0.00000254
  81       0.00000017
  82       0.00000000
  83      -0.00000774
  84      -0.00000000
  85       0.00002626
  86       0.00001833
  87       0.00003010
  88       0.00000000
  89       0.00003043
  90       0.00000000
  91      -0.00000834
  92       0.00000000
  93      -0.00000599
  94      -0.00000415
  95      -0.00000000
  96      -0.00000291
  97      -0.00000438
  98      -0.00000000
  99      -0.00000302
 100       0.00000000
 101      -0.00002249
 102      -0.00000000
 103      -0.00001990
 104      -0.00000906
 105      -0.00000000
 106      -0.00000761
 107      -0.00000814
 108      -0.00000000
 109      -0.00000827
 110       0.00000000
 111       0.00002438
 112       0.00003482
 113      -0.00090255
 114       0.00034554
 115      -0.00000887
 116       0.00000000
 117       0.00000000
 118       0.00009447
 119      -0.00000000
 120      -0.00000000
 121      -0.00108580
 122       0.00000000
 123       0.00000000
 124      -0.00027332
 125      -0.00000000
 126      -0.00000000
 127       0.00005264
 128      -0.00009520
 129       0.00001954
 130      -0.00001390
 131      -0.00000000
 132       0.00000000
 133       0.00000000
 134      -0.00032674
 135       0.00001868
 136       0.00006043
 137      -0.00000000
 138      -0.00000000
 139       0.00000000
 140       0.00004137
 141      -0.00004685
 142      -0.00049006
 143      -0.00000000
 144      -0.00000000
 145       0.00000000
 146       0.00000000
 147       0.00000000
 148       0.00011831
 149       0.00000000
 150      -0.00000000
 151       0.00000797
 152       0.00000000
 153       0.00000000
 154       0.00001106
 155       0.00000000
 156       0.00000000
 157       0.00000000
 158       0.00024152
 159       0.00000000
 160       0.00000000
 161      -0.00003907
 162       0.00000000
 163       0.00000000
 164       0.00025846
 165       0.00000000
 166       0.00002181
 167       0.00001627
 168       0.00000388
 169       0.00001280
 170       0.00044286
 171       0.00000514
 172      -0.00000000
 173      -0.00000385
 174      -0.00001429
 175       0.00000000
 176       0.00000822
 177      -0.00009182
 178       0.00000000
 179       0.00007356
 180      -0.00013655
 181       0.00000000
 182       0.00028683
 183      -0.00000200
 184      -0.00000161
 185      -0.00000121
 186       0.00000000
 187      -0.00000171
 188      -0.00000000
 189       0.00000378
 190       0.00000254
 191       0.00000017
 192       0.00000000
 193       0.00000774
 194       0.00000000
 195       0.00002626
 196       0.00001833
 197       0.00003010
 198      -0.00000000
 199      -0.00003043
 200      -0.00000000
 201       0.00000834
 202      -0.00000000
 203      -0.00000599
 204       0.00000415
 205      -0.00000000
 206      -0.00000291
 207       0.00000438
 208      -0.00000000
 209      -0.00000302
 210       0.00000000
 211       0.00002249
 212      -0.00000000
 213      -0.00001990
 214       0.00000906
 215      -0.00000000
 216      -0.00000761
 217       0.00000814
 218      -0.00000000
 219      -0.00000827
 220      -0.00000000
Ene=    -2.59609E+01
Spin= Alpha
Occup=   1.0000000000
   1      -0.00000000
   2       0.00000000
   3      -0.00000000
   4      -0.00000000
   5       0.00000000
   6       0.00000769
   7       0.00000000
   8       0.00000000
   9      -0.00002992
  10      -0.00000000
  11      -0.00000000
  12      -0.00003980
  13      -0.00000000
  14      -0.00000000
  15      -0.00001673
  16       0.00000000
  17      -0.00000000
  18      -0.00000000
  19      -0.00000000
  20      -0.00000000
  21      -0.00000000
  22       0.00000341
  23       0.00000000
  24       0.00000000
  25       0.00000000
  26      -0.00000000
  27      -0.00000000
  28      -0.00001411
  29      -0.00000000
  30      -0.00000000
  31      -0.00000000
  32       0.00000000
  33      -0.00000000
  34       0.00003443
  35       0.00000000
  36       0.00001259
  37       0.00000000
  38       0.00000000
  39       0.00000607
  40       0.00000000
  41       0.00000000
  42       0.00000848
  43       0.00000000
  44       0.00000000
  45      -0.00000000
  46       0.00002650
  47       0.00000000
  48       0.00000000
  49       0.00001093
  50       0.00000000
  51       0.00000000
  52       0.00000491
  53       0.00000000
  54       0.00000000
  55       0.00000000
  56      -0.68709422
  57       0.00667897
  58      -0.03564301
  59       0.01495163
  60       0.00807571
  61      -0.00021205
  62      -0.00000000
  63      -0.00002839
  64       0.00037244
  65       0.00000000
  66       0.00006492
  67      -0.00074228
  68       0.00000000
  69       0.00001794
  70       0.00156856
  71      -0.00000000
  72       0.00003596
  73      -0.00206333
  74      -0.00206423
  75      -0.00206292
  76      -0.00000000
  77       0.00000096
  78       0.00000000
  79      -0.00686034
  80      -0.00680767
  81      -0.00681077
  82       0.00000000
  83      -0.00000163
  84       0.00000000
  85      -0.00396603
  86      -0.00387888
  87      -0.00387329
  88      -0.00000000
  89       0.00000430
  90      -0.00000000
  91      -0.00010486
  92      -0.00000000
  93      -0.00002425
  94      -0.00004812
  95      -0.00000000
  96      -0.00001061
  97      -0.00004753
  98      -0.00000000
  99      -0.00001086
 100       0.00000000
 101      -0.00003747
 102      -0.00000000
 103      -0.00002480
 104      -0.00000069
 105      -0.00000000
 106      -0.00001157
 107      -0.00000225
 108      -0.00000000
 109      -0.00001100
 110       0.00000000
 111       0.00000000
 112       0.00000000
 113      -0.00000002
 114       0.00000003
 115      -0.00000000
 116       0.00066342
 117      -0.00000000
 118       0.00000000
 119      -0.00435441
 120       0.00000000
 121      -0.00000000
 122      -0.00016796
 123      -0.00000000
 124       0.00000000
 125       0.00004483
 126       0.00000000
 127       0.00000000
 128       0.00000001
 129      -0.00000000
 130      -0.00000000
 131       0.00000000
 132      -0.00000074
 133       0.00000000
 134      -0.00000002
 135      -0.00000000
 136      -0.00000000
 137      -0.00000000
 138       0.00003096
 139      -0.00000000
 140      -0.00000000
 141      -0.00000001
 142      -0.00000001
 143      -0.00000000
 144       0.00003093
 145      -0.00000000
 146       0.00046216
 147      -0.00000000
 148       0.00000000
 149       0.00066167
 150      -0.00000000
 151      -0.00000000
 152       0.00065062
 153      -0.00000000
 154       0.00000000
 155       0.00000000
 156       0.00440753
 157      -0.00000000
 158       0.00000000
 159       0.00199314
 160      -0.00000000
 161       0.00000000
 162       0.00201926
 163      -0.00000000
 164       0.00000000
 165       0.00000000
 166       0.68709151
 167      -0.00667895
 168       0.03564287
 169      -0.01495157
 170      -0.00807566
 171      -0.00021205
 172       0.00000000
 173       0.00002839
 174       0.00037243
 175      -0.00000000
 176      -0.00006492
 177      -0.00074227
 178      -0.00000000
 179      -0.00001794
 180       0.00156855
 181       0.00000000
 182      -0.00003596
 183       0.00206332
 184       0.00206422
 185       0.00206292
 186       0.00000000
 187       0.00000096
 188      -0.00000000
 189       0.00686032
 190       0.00680765
 191       0.00681075
 192      -0.00000000
 193      -0.00000163
 194      -0.00000000
 195       0.00396601
 196       0.00387886
 197       0.00387328
 198       0.00000000
 199       0.00000430
 200       0.00000000
 201      -0.00010486
 202       0.00000000
 203       0.00002425
 204      -0.00004812
 205       0.00000000
 206       0.00001061
 207      -0.00004753
 208      -0.00000000
 209       0.00001086
 210       0.00000000
 211      -0.00003747
 212       0.00000000
 213       0.00002480
 214      -0.00000069
 215      -0.00000000
 216       0.00001157
 217      -0.00000225
 218       0.00000000
 219       0.00001100
 220       0.00000000
Ene=    -2.59609E+01
Spin= Alpha
Occup=   1.0000000000
   1      -0.00001541
   2       0.00000816
   3      -0.00000189
   4      -0.00002078
   5       0.00006420
   6      -0.00000000
   7      -0.00000000
   8       0.00000132
   9       0.00000000
  10       0.00000000
  11      -0.00000143
  12       0.00000000
  13       0.00000000
  14      -0.00002316
  15       0.00000000
  16      -0.00000000
  17      -0.00004845
  18      -0.00000207
  19      -0.00000199
  20      -0.00000005
  21      -0.00000000
  22      -0.00000000
  23       0.00000000
  24       0.00000080
  25       0.00000077
  26      -0.00000817
  27      -0.00000000
  28       0.00000000
  29       0.00000000
  30      -0.00000898
  31      -0.00001067
  32       0.00001760
  33       0.00000000
  34      -0.00000000
  35       0.00000000
  36      -0.00000000
  37      -0.00000000
  38       0.00000175
  39      -0.00000000
  40      -0.00000000
  41       0.00000098
  42      -0.00000000
  43      -0.00000000
  44       0.00000049
  45       0.00000000
  46      -0.00000000
  47      -0.00000000
  48       0.00000862
  49      -0.00000000
  50      -0.00000000
  51       0.00000369
  52      -0.00000000
  53      -0.00000000
  54       0.00000495
  55       0.00000000
  56      -0.68717088
  57       0.00651736
  58      -0.03562287
  59       0.01376457
  60       0.01247770
  61      -0.00021999
  62      -0.00000000
  63      -0.00002709
  64       0.00056056
  65       0.00000000
  66       0.00005871
  67      -0.00252393
  68       0.00000000
  69       0.00002232
  70       0.00246787
  71      -0.00000000
  72       0.00000073
  73      -0.00205658
  74      -0.00203118
  75      -0.00202976
  76       0.00000000
  77       0.00000081
  78       0.00000000
  79      -0.00671492
  80      -0.00679818
  81      -0.00680176
  82      -0.00000000
  83      -0.00000128
  84       0.00000000
  85      -0.00499558
  86      -0.00401991
  87      -0.00401279
  88       0.00000000
  89       0.00000906
  90       0.00000000
  91      -0.00012143
  92      -0.00000000
  93      -0.00002135
  94      -0.00006731
  95      -0.00000000
  96      -0.00001044
  97      -0.00006696
  98      -0.00000000
  99      -0.00000936
 100       0.00000000
 101       0.00006821
 102      -0.00000000
 103      -0.00002339
 104       0.00008058
 105      -0.00000000
 106      -0.00000778
 107       0.00007963
 108      -0.00000000
 109      -0.00001077
 110      -0.00000000
 111       0.00059137
 112       0.00082011
 113      -0.01137741
 114       0.01301389
 115      -0.00011646
 116      -0.00000000
 117      -0.00000000
 118       0.00003946
 119       0.00000001
 120       0.00000000
 121      -0.00031273
 122       0.00000000
 123      -0.00000000
 124       0.00000814
 125      -0.00000000
 126       0.00000000
 127       0.00000430
 128       0.00383668
 129      -0.00145717
 130      -0.00143722
 131      -0.00000000
 132       0.00000000
 133       0.00000000
 134      -0.00873250
 135      -0.00220541
 136      -0.00224462
 137      -0.00000000
 138      -0.00000000
 139      -0.00000000
 140      -0.00234397
 141      -0.00271148
 142      -0.00274486
 143      -0.00000000
 144      -0.00000000
 145       0.00000000
 146      -0.00000000
 147      -0.00000000
 148       0.00007060
 149      -0.00000000
 150      -0.00000000
 151      -0.00000057
 152      -0.00000000
 153      -0.00000000
 154       0.00001465
 155      -0.00000000
 156      -0.00000001
 157      -0.00000000
 158       0.00007744
 159      -0.00000000
 160      -0.00000000
 161       0.00007740
 162      -0.00000000
 163      -0.00000000
 164       0.00007525
 165       0.00000000
 166      -0.68717358
 167       0.00651739
 168      -0.03562301
 169       0.01376462
 170       0.01247773
 171       0.00022000
 172       0.00000000
 173      -0.00002709
 174      -0.00056056
 175      -0.00000000
 176       0.00005871
 177       0.00252393
 178       0.00000000
 179       0.00002232
 180      -0.00246787
 181       0.00000000
 182       0.00000073
 183      -0.00205659
 184      -0.00203119
 185      -0.00202977
 186      -0.00000000
 187      -0.00000081
 188       0.00000000
 189      -0.00671495
 190      -0.00679821
 191      -0.00680178
 192       0.00000000
 193       0.00000128
 194      -0.00000000
 195      -0.00499560
 196      -0.00401992
 197      -0.00401281
 198      -0.00000000
 199      -0.00000906
 200       0.00000000
 201       0.00012143
 202       0.00000000
 203      -0.00002135
 204       0.00006731
 205       0.00000000
 206      -0.00001044
 207       0.00006696
 208       0.00000000
 209      -0.00000936
 210      -0.00000000
 211      -0.00006821
 212       0.00000000
 213      -0.00002339
 214      -0.00008058
 215       0.00000000
 216      -0.00000778
 217      -0.00007963
 218       0.00000000
 219      -0.00001077
 220      -0.00000000
Ene=    -2.17767E+00
Spin= Alpha
Occup=   1.0000000000
   1      -0.00000979
   2      -0.00001674
   3      -0.00001949
   4       0.00007124
   5       0.00011815
   6       0.00000000
   7       0.00000000
   8      -0.00001238
   9      -0.00000000
  10      -0.00000000
  11       0.00002039
  12      -0.00000000
  13      -0.00000000
  14       0.00011868
  15       0.00000000
  16       0.00000000
  17      -0.00009625
  18      -0.00000023
  19      -0.00000124
  20      -0.00000058
  21      -0.00000000
  22      -0.00000000
  23      -0.00000000
  24      -0.00002513
  25      -0.00001954
  26      -0.00002208
  27       0.00000000
  28       0.00000000
  29      -0.00000000
  30      -0.00003693
  31      -0.00004989
  32      -0.00004616
  33      -0.00000000
  34      -0.00000000
  35       0.00000000
  36       0.00000000
  37       0.00000000
  38      -0.00001291
  39       0.00000000
  40       0.00000000
  41      -0.00000737
  42       0.00000000
  43       0.00000000
  44      -0.00000839
  45       0.00000000
  46       0.00000000
  47       0.00000000
  48      -0.00004579
  49       0.00000000
  50       0.00000000
  51      -0.00001541
  52       0.00000000
  53       0.00000000
  54      -0.00001250
  55       0.00000000
  56      -0.00059832
  57       0.00911495
  58       0.00307846
  59      -0.00168843
  60       0.00167788
  61       0.00379775
  62      -0.00000000
  63       0.00000549
  64       0.00579524
  65       0.00000000
  66       0.00000918
  67      -0.00662178
  68       0.00000000
  69      -0.00009189
  70       0.00002115
  71      -0.00000000
  72       0.00005875
  73       0.00034563
  74       0.00004170
  75       0.00004196
  76      -0.00000000
  77       0.00000041
  78      -0.00000000
  79       0.00205530
  80       0.00025133
  81       0.00025203
  82       0.00000000
  83       0.00001053
  84       0.00000000
  85      -0.00406442
  86      -0.00057169
  87      -0.00056772
  88       0.00000000
  89      -0.00004998
  90      -0.00000000
  91       0.00027904
  92      -0.00000000
  93       0.00000003
  94      -0.00017626
  95      -0.00000000
  96       0.00000585
  97      -0.00017622
  98      -0.00000000
  99       0.00000011
 100      -0.00000000
 101       0.00095787
 102      -0.00000000
 103       0.00002298
 104       0.00070891
 105      -0.00000000
 106      -0.00000457
 107       0.00071001
 108      -0.00000000
 109       0.00000979
 110       0.00000000
 111       0.99878345
 112       0.00621040
 113      -0.01814272
 114       0.11544605
 115      -0.00083847
 116      -0.00000000
 117      -0.00000000
 118       0.00231121
 119      -0.00000000
 120       0.00000000
 121      -0.00763363
 122       0.00000000
 123      -0.00000000
 124       0.00061857
 125      -0.00000000
 126       0.00000000
 127      -0.00015866
 128       0.00731827
 129      -0.00489162
 130      -0.00476990
 131      -0.00000000
 132      -0.00000000
 133       0.00000000
 134      -0.02022478
 135      -0.01660896
 136      -0.01670919
 137      -0.00000000
 138       0.00000000
 139      -0.00000000
 140      -0.02482828
 141      -0.02518438
 142      -0.02518197
 143      -0.00000000
 144       0.00000000
 145       0.00000000
 146      -0.00000000
 147      -0.00000000
 148       0.00052033
 149       0.00000000
 150      -0.00000000
 151       0.00039071
 152       0.00000000
 153      -0.00000000
 154       0.00022888
 155      -0.00000000
 156       0.00000000
 157      -0.00000000
 158       0.00351486
 159       0.00000000
 160      -0.00000000
 161       0.00149655
 162       0.00000000
 163      -0.00000000
 164       0.00158421
 165      -0.00000000
 166      -0.00059832
 167       0.00911495
 168       0.00307846
 169      -0.00168843
 170       0.00167788
 171      -0.00379775
 172      -0.00000000
 173       0.00000549
 174      -0.00579524
 175      -0.00000000
 176       0.00000918
 177       0.00662178
 178       0.00000000
 179      -0.00009189
 180      -0.00002115
 181       0.00000000
 182       0.00005875
 183       0.00034563
 184       0.00004170
 185       0.00004196
 186      -0.00000000
 187      -0.00000041
 188       0.00000000
 189       0.00205530
 190       0.00025133
 191       0.00025203
 192       0.00000000
 193      -0.00001053
 194      -0.00000000
 195      -0.00406442
 196      -0.00057169
 197      -0.00056772
 198      -0.00000000
 199       0.00004998
 200       0.00000000
 201      -0.00027904
 202      -0.00000000
 203       0.00000003
 204       0.00017626
 205      -0.00000000
 206       0.00000585
 207       0.00017622
 208      -0.00000000
 209       0.00000011
 210       0.00000000
 211      -0.00095787
 212      -0.00000000
 213       0.00002298
 214      -0.00070891
 215       0.00000000
 216      -0.00000457
 217      -0.00071001
 218       0.00000000
 219       0.00000979
 220      -0.00000000
Ene=    -1.22350E+00
Spin= Alpha
Occup=   1.0000000000
   1      -0.00000000
   2       0.00000000
   3       0.00000000
   4       0.00000000
   5      -0.00000000
   6      -0.00001971
   7       0.00000000
   8      -0.00000000
   9       0.00003852
  10      -0.00000000
  11      -0.00000000
  12       0.00006189
  13      -0.00000000
  14      -0.00000000
  15      -0.00007049
  16       0.00000000
  17       0.00000000
  18       0.00000000
  19       0.00000000
  20      -0.00000000
  21      -0.00000000
  22      -0.00000654
  23      -0.00000000
  24      -0.00000000
  25      -0.00000000
  26      -0.00000000
  27      -0.00000000
  28       0.00004142
  29       0.00000000
  30       0.00000000
  31       0.00000000
  32      -0.00000000
  33       0.00000000
  34      -0.00010433
  35      -0.00000000
  36      -0.00001717
  37       0.00000000
  38      -0.00000000
  39      -0.00000732
  40       0.00000000
  41       0.00000000
  42      -0.00001927
  43       0.00000000
  44       0.00000000
  45       0.00000000
  46      -0.00006338
  47       0.00000000
  48       0.00000000
  49      -0.00002937
  50       0.00000000
  51      -0.00000000
  52       0.00000641
  53       0.00000000
  54      -0.00000000
  55       0.00000000
  56      -0.00750458
  57       0.38675154
  58       0.11042031
  59       0.27703244
  60       0.01407150
  61       0.00567387
  62       0.00000000
  63       0.00021521
  64       0.00760690
  65      -0.00000000
  66       0.00033592
  67       0.00536325
  68      -0.00000000
  69       0.00077413
  70      -0.00198268
  71       0.00000000
  72       0.00012463
  73       0.00118283
  74       0.00107643
  75       0.00107961
  76      -0.00000000
  77       0.00000226
  78      -0.00000000
  79       0.00006424
  80      -0.00326794
  81      -0.00322049
  82      -0.00000000
  83       0.00001907
  84       0.00000000
  85      -0.00073020
  86      -0.00531971
  87      -0.00514040
  88       0.00000000
  89       0.00011548
  90       0.00000000
  91       0.00024731
  92       0.00000000
  93      -0.00000172
  94       0.00021523
  95       0.00000000
  96      -0.00000116
  97       0.00021273
  98       0.00000000
  99       0.00000170
 100       0.00000000
 101       0.00316768
 102       0.00000000
 103       0.00001249
 104      -0.00008908
 105       0.00000000
 106       0.00000558
 107      -0.00006901
 108       0.00000000
 109      -0.00001017
 110      -0.00000000
 111      -0.00000000
 112       0.00000000
 113       0.00000000
 114      -0.00000000
 115       0.00000000
 116      -0.04810281
 117      -0.00000000
 118       0.00000000
 119       0.11285254
 120       0.00000000
 121      -0.00000000
 122      -0.00608154
 123      -0.00000000
 124       0.00000000
 125       0.00145425
 126       0.00000000
 127      -0.00000000
 128      -0.00000000
 129       0.00000000
 130       0.00000000
 131      -0.00000000
 132      -0.00012830
 133       0.00000000
 134       0.00000000
 135       0.00000000
 136       0.00000000
 137       0.00000000
 138      -0.00009185
 139      -0.00000000
 140       0.00000000
 141       0.00000000
 142       0.00000000
 143       0.00000000
 144       0.00009497
 145       0.00000000
 146      -0.02316458
 147      -0.00000000
 148       0.00000000
 149      -0.00317313
 150      -0.00000000
 151      -0.00000000
 152      -0.00326111
 153      -0.00000000
 154       0.00000000
 155       0.00000000
 156      -0.05738186
 157      -0.00000000
 158       0.00000000
 159      -0.02489605
 160      -0.00000000
 161       0.00000000
 162      -0.02488947
 163      -0.00000000
 164       0.00000000
 165       0.00000000
 166       0.00750458
 167      -0.38675154
 168      -0.11042031
 169      -0.27703244
 170      -0.01407150
 171       0.00567387
 172      -0.00000000
 173      -0.00021521
 174       0.00760690
 175      -0.00000000
 176      -0.00033592
 177       0.00536325
 178       0.00000000
 179      -0.00077413
 180      -0.00198268
 181      -0.00000000
 182      -0.00012463
 183      -0.00118283
 184      -0.00107643
 185      -0.00107961
 186      -0.00000000
 187       0.00000226
 188       0.00000000
 189      -0.00006424
 190       0.00326794
 191       0.00322049
 192       0.00000000
 193       0.00001907
 194      -0.00000000
 195       0.00073020
 196       0.00531971
 197       0.00514040
 198      -0.00000000
 199       0.00011548
 200      -0.00000000
 201       0.00024731
 202       0.00000000
 203       0.00000172
 204       0.00021523
 205      -0.00000000
 206       0.00000116
 207       0.00021273
 208       0.00000000
 209      -0.00000170
 210      -0.00000000
 211       0.00316768
 212      -0.00000000
 213      -0.00001249
 214      -0.00008908