[Molden Format]
[Title]
 Molden2AIM, Version 3.1.0 (02/25/2015)           Time: Wed Apr 23 12:50:08 2025

[Atoms] Angs
F       1       9     0.00000000     0.00000000     4.20000000
F       2       9    -1.70200000     0.00000000     0.00000000
LI       3       3     0.00000000     0.00000000     0.00000000
F       4       9     1.70200000     0.00000000     0.00000000
[GTO]
    1 0
 S   8 1.0
    0.1950000000D+05      0.5193715996D-03
    0.2923000000D+04      0.4018727387D-02
    0.6645000000D+03      0.2069291186D-01
    0.1875000000D+03      0.8093796861D-01
    0.6062000000D+02      0.2360620750D+00
    0.2142000000D+02      0.4434347595D+00
    0.7950000000D+01      0.3585036736D+00
    0.8815000000D+00     -0.8084577247D-02
 S   8 1.0
    0.1950000000D+05     -0.1995911530D-03
    0.2923000000D+04     -0.1555787449D-02
    0.6645000000D+03     -0.8046764688D-02
    0.1875000000D+03     -0.3255894654D-01
    0.6062000000D+02     -0.1017658994D+00
    0.2142000000D+02     -0.2388440797D+00
    0.7950000000D+01     -0.3015737026D+00
    0.8815000000D+00      0.1032147265D+01
 S   1 1.0
    0.2257000000D+01      0.1000000000D+01
 S   1 1.0
    0.3041000000D+00      0.1000000000D+01
 S   1 1.0
    0.9158000000D-01      0.1000000000D+01
 P   3 1.0
    0.4388000000D+02      0.4190462069D-01
    0.9926000000D+01      0.2626978417D+00
    0.2930000000D+01      0.7977593735D+00
 P   1 1.0
    0.9132000000D+00      0.1000000000D+01
 P   1 1.0
    0.2672000000D+00      0.1000000000D+01
 P   1 1.0
    0.7361000000D-01      0.1000000000D+01
 D   1 1.0
    0.3107000000D+01      0.1000000000D+01
 D   1 1.0
    0.8550000000D+00      0.1000000000D+01
 D   1 1.0
    0.2920000000D+00      0.1000000000D+01
 F   1 1.0
    0.1917000000D+01      0.1000000000D+01
 F   1 1.0
    0.7240000000D+00      0.1000000000D+01

    2 0
 S   8 1.0
    0.1950000000D+05      0.5193715996D-03
    0.2923000000D+04      0.4018727387D-02
    0.6645000000D+03      0.2069291186D-01
    0.1875000000D+03      0.8093796861D-01
    0.6062000000D+02      0.2360620750D+00
    0.2142000000D+02      0.4434347595D+00
    0.7950000000D+01      0.3585036736D+00
    0.8815000000D+00     -0.8084577247D-02
 S   8 1.0
    0.1950000000D+05     -0.1995911530D-03
    0.2923000000D+04     -0.1555787449D-02
    0.6645000000D+03     -0.8046764688D-02
    0.1875000000D+03     -0.3255894654D-01
    0.6062000000D+02     -0.1017658994D+00
    0.2142000000D+02     -0.2388440797D+00
    0.7950000000D+01     -0.3015737026D+00
    0.8815000000D+00      0.1032147265D+01
 S   1 1.0
    0.2257000000D+01      0.1000000000D+01
 S   1 1.0
    0.3041000000D+00      0.1000000000D+01
 S   1 1.0
    0.9158000000D-01      0.1000000000D+01
 P   3 1.0
    0.4388000000D+02      0.4190462069D-01
    0.9926000000D+01      0.2626978417D+00
    0.2930000000D+01      0.7977593735D+00
 P   1 1.0
    0.9132000000D+00      0.1000000000D+01
 P   1 1.0
    0.2672000000D+00      0.1000000000D+01
 P   1 1.0
    0.7361000000D-01      0.1000000000D+01
 D   1 1.0
    0.3107000000D+01      0.1000000000D+01
 D   1 1.0
    0.8550000000D+00      0.1000000000D+01
 D   1 1.0
    0.2920000000D+00      0.1000000000D+01
 F   1 1.0
    0.1917000000D+01      0.1000000000D+01
 F   1 1.0
    0.7240000000D+00      0.1000000000D+01

    3 0
 S   9 1.0
    0.5988000000D+04      0.1331958065D-03
    0.8989000000D+03      0.1026509035D-02
    0.2059000000D+03      0.5279761591D-02
    0.5924000000D+02      0.2095981228D-01
    0.1987000000D+02      0.6643766767D-01
    0.7406000000D+01      0.1660190588D+00
    0.2930000000D+01      0.3155018081D+00
    0.1189000000D+01      0.3941023560D+00
    0.4798000000D+00      0.1911510044D+00
 S   9 1.0
    0.5988000000D+04     -0.7765625929D-04
    0.8989000000D+03     -0.5953646546D-03
    0.2059000000D+03     -0.3032292029D-02
    0.5924000000D+02     -0.1229927230D-01
    0.1987000000D+02     -0.3889839007D-01
    0.7406000000D+01     -0.1039003770D+00
    0.2930000000D+01     -0.2068466914D+00
    0.1189000000D+01     -0.3669702002D+00
    0.4798000000D+00     -0.4148656226D+00
 S   1 1.0
    0.7509000000D-01      0.1000000000D+01
 S   1 1.0
    0.2832000000D-01      0.1000000000D+01
 S   1 1.0
    0.7600000000D-02      0.1000000000D+01
 P   3 1.0
    0.3266000000D+01      0.3554468856D-01
    0.6511000000D+00      0.1957964548D+00
    0.1696000000D+00      0.8639954123D+00
 P   1 1.0
    0.5578000000D-01      0.1000000000D+01
 P   1 1.0
    0.2050000000D-01      0.1000000000D+01
 P   1 1.0
    0.9100000000D-02      0.1000000000D+01
 D   1 1.0
    0.1874000000D+00      0.1000000000D+01
 D   1 1.0
    0.8010000000D-01      0.1000000000D+01
 D   1 1.0
    0.3710000000D-01      0.1000000000D+01
 F   1 1.0
    0.1829000000D+00      0.1000000000D+01
 F   1 1.0
    0.8160000000D-01      0.1000000000D+01

    4 0
 S   8 1.0
    0.1950000000D+05      0.5193715996D-03
    0.2923000000D+04      0.4018727387D-02
    0.6645000000D+03      0.2069291186D-01
    0.1875000000D+03      0.8093796861D-01
    0.6062000000D+02      0.2360620750D+00
    0.2142000000D+02      0.4434347595D+00
    0.7950000000D+01      0.3585036736D+00
    0.8815000000D+00     -0.8084577247D-02
 S   8 1.0
    0.1950000000D+05     -0.1995911530D-03
    0.2923000000D+04     -0.1555787449D-02
    0.6645000000D+03     -0.8046764688D-02
    0.1875000000D+03     -0.3255894654D-01
    0.6062000000D+02     -0.1017658994D+00
    0.2142000000D+02     -0.2388440797D+00
    0.7950000000D+01     -0.3015737026D+00
    0.8815000000D+00      0.1032147265D+01
 S   1 1.0
    0.2257000000D+01      0.1000000000D+01
 S   1 1.0
    0.3041000000D+00      0.1000000000D+01
 S   1 1.0
    0.9158000000D-01      0.1000000000D+01
 P   3 1.0
    0.4388000000D+02      0.4190462069D-01
    0.9926000000D+01      0.2626978417D+00
    0.2930000000D+01      0.7977593735D+00
 P   1 1.0
    0.9132000000D+00      0.1000000000D+01
 P   1 1.0
    0.2672000000D+00      0.1000000000D+01
 P   1 1.0
    0.7361000000D-01      0.1000000000D+01
 D   1 1.0
    0.3107000000D+01      0.1000000000D+01
 D   1 1.0
    0.8550000000D+00      0.1000000000D+01
 D   1 1.0
    0.2920000000D+00      0.1000000000D+01
 F   1 1.0
    0.1917000000D+01      0.1000000000D+01
 F   1 1.0
    0.7240000000D+00      0.1000000000D+01


[MO]
 Ene=        -25.96500000
 Spin= Alpha
 Occup=        1.00000000
    1       -0.9712005600
    2        0.0104068100
    3       -0.0493580500
    4        0.0178729300
    5        0.0022860100
    6        0.0000000000
    7        0.0000000000
    8        0.0000811500
    9       -0.0000000000
   10       -0.0000000000
   11       -0.0001041000
   12       -0.0000000000
   13        0.0000000000
   14        0.0001413300
   15        0.0000000000
   16       -0.0000000000
   17       -0.0003301500
   18       -0.0028640000
   19       -0.0028637800
   20       -0.0028559400
   21       -0.0000000000
   22        0.0000000000
   23        0.0000000000
   24       -0.0084095200
   25       -0.0084081500
   26       -0.0084375300
   27        0.0000000000
   28        0.0000000000
   29       -0.0000000000
   30       -0.0033166300
   31       -0.0033186300
   32       -0.0032613700
   33       -0.0000000000
   34        0.0000000000
   35       -0.0000000000
   36        0.0000000000
   37        0.0000000000
   38        0.0000239100
   39        0.0000000000
   40        0.0000000000
   41        0.0000103200
   42        0.0000000000
   43       -0.0000000000
   44        0.0000098400
   45       -0.0000000000
   46        0.0000000000
   47       -0.0000000000
   48       -0.0000125900
   49        0.0000000000
   50        0.0000000000
   51       -0.0000049900
   52        0.0000000000
   53       -0.0000000000
   54       -0.0000038700
   55       -0.0000000000
   56        0.0000218100
   57        0.0000162700
   58        0.0000038800
   59        0.0000128000
   60        0.0004428600
   61       -0.0000051400
   62       -0.0000000000
   63       -0.0000038500
   64        0.0000142900
   65        0.0000000000
   66        0.0000082200
   67        0.0000918200
   68        0.0000000000
   69        0.0000735600
   70        0.0001365500
   71       -0.0000000000
   72        0.0002868300
   73       -0.0000020000
   74       -0.0000016100
   75       -0.0000012100
   76        0.0000000000
   77        0.0000017100
   78       -0.0000000000
   79        0.0000037800
   80        0.0000025400
   81        0.0000001700
   82        0.0000000000
   83       -0.0000077400
   84       -0.0000000000
   85        0.0000262600
   86        0.0000183300
   87        0.0000301000
   88        0.0000000000
   89        0.0000304300
   90        0.0000000000
   91       -0.0000083400
   92        0.0000000000
   93       -0.0000059900
   94       -0.0000041500
   95       -0.0000000000
   96       -0.0000029100
   97       -0.0000043800
   98       -0.0000000000
   99       -0.0000030200
  100        0.0000000000
  101       -0.0000224900
  102       -0.0000000000
  103       -0.0000199000
  104       -0.0000090600
  105       -0.0000000000
  106       -0.0000076100
  107       -0.0000081400
  108       -0.0000000000
  109       -0.0000082700
  110        0.0000000000
  111        0.0000243800
  112        0.0000348200
  113       -0.0009025500
  114        0.0003455400
  115       -0.0000088700
  116        0.0000000000
  117        0.0000000000
  118        0.0000944700
  119       -0.0000000000
  120       -0.0000000000
  121       -0.0010858000
  122        0.0000000000
  123        0.0000000000
  124       -0.0002733200
  125       -0.0000000000
  126       -0.0000000000
  127        0.0000526400
  128       -0.0000952000
  129        0.0000195400
  130       -0.0000139000
  131       -0.0000000000
  132        0.0000000000
  133        0.0000000000
  134       -0.0003267400
  135        0.0000186800
  136        0.0000604300
  137       -0.0000000000
  138       -0.0000000000
  139        0.0000000000
  140        0.0000413700
  141       -0.0000468500
  142       -0.0004900600
  143       -0.0000000000
  144       -0.0000000000
  145        0.0000000000
  146        0.0000000000
  147        0.0000000000
  148        0.0001183100
  149        0.0000000000
  150       -0.0000000000
  151        0.0000079700
  152        0.0000000000
  153        0.0000000000
  154        0.0000110600
  155        0.0000000000
  156        0.0000000000
  157        0.0000000000
  158        0.0002415200
  159        0.0000000000
  160        0.0000000000
  161       -0.0000390700
  162        0.0000000000
  163        0.0000000000
  164        0.0002584600
  165        0.0000000000
  166        0.0000218100
  167        0.0000162700
  168        0.0000038800
  169        0.0000128000
  170        0.0004428600
  171        0.0000051400
  172       -0.0000000000
  173       -0.0000038500
  174       -0.0000142900
  175        0.0000000000
  176        0.0000082200
  177       -0.0000918200
  178        0.0000000000
  179        0.0000735600
  180       -0.0001365500
  181        0.0000000000
  182        0.0002868300
  183       -0.0000020000
  184       -0.0000016100
  185       -0.0000012100
  186        0.0000000000
  187       -0.0000017100
  188       -0.0000000000
  189        0.0000037800
  190        0.0000025400
  191        0.0000001700
  192        0.0000000000
  193        0.0000077400
  194        0.0000000000
  195        0.0000262600
  196        0.0000183300
  197        0.0000301000
  198       -0.0000000000
  199       -0.0000304300
  200       -0.0000000000
  201        0.0000083400
  202       -0.0000000000
  203       -0.0000059900
  204        0.0000041500
  205       -0.0000000000
  206       -0.0000029100
  207        0.0000043800
  208       -0.0000000000
  209       -0.0000030200
  210       -0.0000000000
  211        0.0000224900
  212       -0.0000000000
  213       -0.0000199000
  214        0.0000090600
  215       -0.0000000000
  216       -0.0000076100
  217        0.0000081400
  218       -0.0000000000
  219       -0.0000082700
  220       -0.0000000000
 Ene=        -25.96090000
 Spin= Alpha
 Occup=        1.00000000
    1        0.0000000000
    2       -0.0000000000
    3        0.0000000000
    4        0.0000000000
    5       -0.0000000000
    6       -0.0000076900
    7       -0.0000000000
    8       -0.0000000000
    9        0.0000299200
   10        0.0000000000
   11        0.0000000000
   12        0.0000398000
   13        0.0000000000
   14        0.0000000000
   15        0.0000167300
   16       -0.0000000000
   17        0.0000000000
   18        0.0000000000
   19        0.0000000000
   20        0.0000000000
   21        0.0000000000
   22       -0.0000034100
   23       -0.0000000000
   24       -0.0000000000
   25       -0.0000000000
   26        0.0000000000
   27        0.0000000000
   28        0.0000141100
   29        0.0000000000
   30        0.0000000000
   31        0.0000000000
   32       -0.0000000000
   33        0.0000000000
   34       -0.0000344300
   35       -0.0000000000
   36       -0.0000125900
   37       -0.0000000000
   38       -0.0000000000
   39       -0.0000060700
   40       -0.0000000000
   41       -0.0000000000
   42       -0.0000084800
   43       -0.0000000000
   44       -0.0000000000
   45        0.0000000000
   46       -0.0000265000
   47       -0.0000000000
   48       -0.0000000000
   49       -0.0000109300
   50       -0.0000000000
   51       -0.0000000000
   52       -0.0000049100
   53       -0.0000000000
   54       -0.0000000000
   55       -0.0000000000
   56        0.6870943000
   57       -0.0066789700
   58        0.0356430200
   59       -0.0149516300
   60       -0.0080757100
   61        0.0002120500
   62        0.0000000000
   63        0.0000283900
   64       -0.0003724400
   65       -0.0000000000
   66       -0.0000649200
   67        0.0007422800
   68       -0.0000000000
   69       -0.0000179400
   70       -0.0015685600
   71        0.0000000000
   72       -0.0000359600
   73        0.0020633300
   74        0.0020642300
   75        0.0020629200
   76        0.0000000000
   77       -0.0000009600
   78       -0.0000000000
   79        0.0068603400
   80        0.0068076700
   81        0.0068107700
   82       -0.0000000000
   83        0.0000016300
   84       -0.0000000000
   85        0.0039660300
   86        0.0038788800
   87        0.0038732900
   88        0.0000000000
   89       -0.0000043000
   90        0.0000000000
   91        0.0001048600
   92        0.0000000000
   93        0.0000242500
   94        0.0000481200
   95        0.0000000000
   96        0.0000106100
   97        0.0000475300
   98        0.0000000000
   99        0.0000108600
  100       -0.0000000000
  101        0.0000374700
  102        0.0000000000
  103        0.0000248000
  104        0.0000006900
  105        0.0000000000
  106        0.0000115700
  107        0.0000022500
  108        0.0000000000
  109        0.0000110000
  110       -0.0000000000
  111       -0.0000000000
  112       -0.0000000000
  113        0.0000000200
  114       -0.0000000300
  115        0.0000000000
  116       -0.0006634200
  117        0.0000000000
  118       -0.0000000000
  119        0.0043544100
  120       -0.0000000000
  121        0.0000000000
  122        0.0001679600
  123        0.0000000000
  124       -0.0000000000
  125       -0.0000448300
  126       -0.0000000000
  127       -0.0000000000
  128       -0.0000000100
  129        0.0000000000
  130        0.0000000000
  131       -0.0000000000
  132        0.0000007400
  133       -0.0000000000
  134        0.0000000200
  135        0.0000000000
  136        0.0000000000
  137        0.0000000000
  138       -0.0000309600
  139        0.0000000000
  140        0.0000000000
  141        0.0000000100
  142        0.0000000100
  143        0.0000000000
  144       -0.0000309300
  145        0.0000000000
  146       -0.0004621600
  147        0.0000000000
  148       -0.0000000000
  149       -0.0006616700
  150        0.0000000000
  151        0.0000000000
  152       -0.0006506200
  153        0.0000000000
  154       -0.0000000000
  155       -0.0000000000
  156       -0.0044075300
  157        0.0000000000
  158       -0.0000000000
  159       -0.0019931400
  160        0.0000000000
  161       -0.0000000000
  162       -0.0020192600
  163        0.0000000000
  164       -0.0000000000
  165       -0.0000000000
  166       -0.6870914400
  167        0.0066789500
  168       -0.0356428700
  169        0.0149515700
  170        0.0080756600
  171        0.0002120500
  172       -0.0000000000
  173       -0.0000283900
  174       -0.0003724300
  175        0.0000000000
  176        0.0000649200
  177        0.0007422600
  178        0.0000000000
  179        0.0000179400
  180       -0.0015685500
  181       -0.0000000000
  182        0.0000359600
  183       -0.0020633200
  184       -0.0020642200
  185       -0.0020629200
  186       -0.0000000000
  187       -0.0000009600
  188        0.0000000000
  189       -0.0068603200
  190       -0.0068076500
  191       -0.0068107500
  192        0.0000000000
  193        0.0000016300
  194        0.0000000000
  195       -0.0039660100
  196       -0.0038788600
  197       -0.0038732800
  198       -0.0000000000
  199       -0.0000043000
  200       -0.0000000000
  201        0.0001048600
  202       -0.0000000000
  203       -0.0000242500
  204        0.0000481200
  205       -0.0000000000
  206       -0.0000106100
  207        0.0000475300
  208       -0.0000000000
  209       -0.0000108600
  210       -0.0000000000
  211        0.0000374700
  212       -0.0000000000
  213       -0.0000248000
  214        0.0000006900
  215        0.0000000000
  216       -0.0000115700
  217        0.0000022500
  218       -0.0000000000
  219       -0.0000110000
  220        0.0000000000
 Ene=        -25.96090000
 Spin= Alpha
 Occup=        1.00000000
    1        0.0000154100
    2       -0.0000081600
    3        0.0000018900
    4        0.0000207800
    5       -0.0000642000
    6        0.0000000000
    7        0.0000000000
    8       -0.0000013200
    9       -0.0000000000
   10       -0.0000000000
   11        0.0000014300
   12       -0.0000000000
   13       -0.0000000000
   14        0.0000231600
   15       -0.0000000000
   16        0.0000000000
   17        0.0000484500
   18        0.0000020700
   19        0.0000019900
   20        0.0000000500
   21        0.0000000000
   22        0.0000000000
   23       -0.0000000000
   24       -0.0000008000
   25       -0.0000007700
   26        0.0000081700
   27        0.0000000000
   28       -0.0000000000
   29       -0.0000000000
   30        0.0000089800
   31        0.0000106700
   32       -0.0000176000
   33       -0.0000000000
   34        0.0000000000
   35       -0.0000000000
   36        0.0000000000
   37        0.0000000000
   38       -0.0000017500
   39        0.0000000000
   40        0.0000000000
   41       -0.0000009800
   42        0.0000000000
   43        0.0000000000
   44       -0.0000004900
   45       -0.0000000000
   46        0.0000000000
   47        0.0000000000
   48       -0.0000086200
   49        0.0000000000
   50        0.0000000000
   51       -0.0000036900
   52        0.0000000000
   53        0.0000000000
   54       -0.0000049500
   55       -0.0000000000
   56        0.6871708000
   57       -0.0065173600
   58        0.0356228600
   59       -0.0137645600
   60       -0.0124777000
   61        0.0002199900
   62        0.0000000000
   63        0.0000270900
   64       -0.0005605600
   65       -0.0000000000
   66       -0.0000587100
   67        0.0025239300
   68       -0.0000000000
   69       -0.0000223200
   70       -0.0024678700
   71        0.0000000000
   72       -0.0000007300
   73        0.0020565800
   74        0.0020311800
   75        0.0020297600
   76       -0.0000000000
   77       -0.0000008100
   78       -0.0000000000
   79        0.0067149200
   80        0.0067981800
   81        0.0068017600
   82        0.0000000000
   83        0.0000012800
   84       -0.0000000000
   85        0.0049955800
   86        0.0040199100
   87        0.0040127900
   88       -0.0000000000
   89       -0.0000090600
   90       -0.0000000000
   91        0.0001214300
   92        0.0000000000
   93        0.0000213500
   94        0.0000673100
   95        0.0000000000
   96        0.0000104400
   97        0.0000669600
   98        0.0000000000
   99        0.0000093600
  100       -0.0000000000
  101       -0.0000682100
  102        0.0000000000
  103        0.0000233900
  104       -0.0000805800
  105        0.0000000000
  106        0.0000077800
  107       -0.0000796300
  108        0.0000000000
  109        0.0000107700
  110        0.0000000000
  111       -0.0005913700
  112       -0.0008201100
  113        0.0113774100
  114       -0.0130138900
  115        0.0001164600
  116        0.0000000000
  117        0.0000000000
  118       -0.0000394600
  119       -0.0000000100
  120       -0.0000000000
  121        0.0003127300
  122       -0.0000000000
  123        0.0000000000
  124       -0.0000081400
  125        0.0000000000
  126       -0.0000000000
  127       -0.0000043000
  128       -0.0038366800
  129        0.0014571700
  130        0.0014372200
  131        0.0000000000
  132       -0.0000000000
  133       -0.0000000000
  134        0.0087325000
  135        0.0022054100
  136        0.0022446200
  137        0.0000000000
  138        0.0000000000
  139        0.0000000000
  140        0.0023439700
  141        0.0027114800
  142        0.0027448600
  143        0.0000000000
  144        0.0000000000
  145       -0.0000000000
  146        0.0000000000
  147        0.0000000000
  148       -0.0000706000
  149        0.0000000000
  150        0.0000000000
  151        0.0000005700
  152        0.0000000000
  153        0.0000000000
  154       -0.0000146500
  155        0.0000000000
  156        0.0000000100
  157        0.0000000000
  158       -0.0000774400
  159        0.0000000000
  160        0.0000000000
  161       -0.0000774000
  162        0.0000000000
  163        0.0000000000
  164       -0.0000752500
  165       -0.0000000000
  166        0.6871736600
  167       -0.0065173900
  168        0.0356230100
  169       -0.0137646300
  170       -0.0124777300
  171       -0.0002200000
  172       -0.0000000000
  173        0.0000270900
  174        0.0005605600
  175        0.0000000000
  176       -0.0000587100
  177       -0.0025239300
  178       -0.0000000000
  179       -0.0000223200
  180        0.0024678700
  181       -0.0000000000
  182       -0.0000007300
  183        0.0020565900
  184        0.0020311900
  185        0.0020297700
  186        0.0000000000
  187        0.0000008100
  188       -0.0000000000
  189        0.0067149500
  190        0.0067982100
  191        0.0068017800
  192       -0.0000000000
  193       -0.0000012800
  194        0.0000000000
  195        0.0049956000
  196        0.0040199300
  197        0.0040128100
  198        0.0000000000
  199        0.0000090600
  200       -0.0000000000
  201       -0.0001214300
  202       -0.0000000000
  203        0.0000213500
  204       -0.0000673100
  205       -0.0000000000
  206        0.0000104400
  207       -0.0000669600
  208       -0.0000000000
  209        0.0000093600
  210        0.0000000000
  211        0.0000682100
  212       -0.0000000000
  213        0.0000233900
  214        0.0000805800
  215       -0.0000000000
  216        0.0000077800
  217        0.0000796300
  218       -0.0000000000
  219        0.0000107700
  220        0.0000000000
 Ene=         -2.17767000
 Spin= Alpha
 Occup=        1.00000000
    1       -0.0000097900
    2       -0.0000167400
    3       -0.0000194900
    4        0.0000712400
    5        0.0001181500
    6        0.0000000000
    7        0.0000000000
    8       -0.0000123800
    9       -0.0000000000
   10       -0.0000000000
   11        0.0000203900
   12       -0.0000000000
   13       -0.0000000000
   14        0.0001186800
   15        0.0000000000
   16        0.0000000000
   17       -0.0000962500
   18       -0.0000002300
   19       -0.0000012400
   20       -0.0000005800
   21       -0.0000000000
   22       -0.0000000000
   23       -0.0000000000
   24       -0.0000251300
   25       -0.0000195400
   26       -0.0000220800
   27        0.0000000000
   28       -0.0000000000
   29        0.0000000000
   30       -0.0000369300
   31       -0.0000498900
   32       -0.0000461600
   33       -0.0000000000
   34        0.0000000000
   35        0.0000000000
   36        0.0000000000
   37        0.0000000000
   38       -0.0000129100
   39        0.0000000000
   40        0.0000000000
   41       -0.0000073700
   42        0.0000000000
   43        0.0000000000
   44       -0.0000083900
   45        0.0000000000
   46        0.0000000000
   47        0.0000000000
   48       -0.0000457900
   49        0.0000000000
   50        0.0000000000
   51       -0.0000154100
   52        0.0000000000
   53        0.0000000000
   54       -0.0000125000
   55        0.0000000000
   56       -0.0005983200
   57        0.0091149500
   58        0.0030784600
   59       -0.0016884300
   60        0.0016778800
   61        0.0037977500
   62       -0.0000000000
   63        0.0000054900
   64        0.0057952400
   65        0.0000000000
   66        0.0000091800
   67       -0.0066217800
   68        0.0000000000
   69       -0.0000918900
   70        0.0000211500
   71       -0.0000000000
   72        0.0000587500
   73        0.0003456300
   74        0.0000417000
   75        0.0000419600
   76       -0.0000000000
   77        0.0000004100
   78        0.0000000000
   79        0.0020553000
   80        0.0002513300
   81        0.0002520300
   82        0.0000000000
   83        0.0000105300
   84        0.0000000000
   85       -0.0040644200
   86       -0.0005716900
   87       -0.0005677200
   88        0.0000000000
   89       -0.0000499800
   90       -0.0000000000
   91        0.0002790400
   92       -0.0000000000
   93        0.0000000300
   94       -0.0001762600
   95       -0.0000000000
   96        0.0000058500
   97       -0.0001762200
   98        0.0000000000
   99        0.0000001100
  100       -0.0000000000
  101        0.0009578700
  102       -0.0000000000
  103        0.0000229800
  104        0.0007089100
  105       -0.0000000000
  106       -0.0000045700
  107        0.0007100100
  108       -0.0000000000
  109        0.0000097900
  110        0.0000000000
  111        0.9987834500
  112        0.0062104000
  113       -0.0181427200
  114        0.1154460500
  115       -0.0008384700
  116        0.0000000000
  117       -0.0000000000
  118        0.0023112100
  119       -0.0000000000
  120        0.0000000000
  121       -0.0076336300
  122       -0.0000000000
  123       -0.0000000000
  124        0.0006185700
  125        0.0000000000
  126        0.0000000000
  127       -0.0001586600
  128        0.0073182700
  129       -0.0048916200
  130       -0.0047699000
  131       -0.0000000000
  132       -0.0000000000
  133        0.0000000000
  134       -0.0202247800
  135       -0.0166089600
  136       -0.0167091900
  137       -0.0000000000
  138        0.0000000000
  139       -0.0000000000
  140       -0.0248282800
  141       -0.0251843800
  142       -0.0251819700
  143       -0.0000000000
  144        0.0000000000
  145        0.0000000000
  146        0.0000000000
  147       -0.0000000000
  148        0.0005203300
  149        0.0000000000
  150       -0.0000000000
  151        0.0003907100
  152        0.0000000000
  153       -0.0000000000
  154        0.0002288800
  155        0.0000000000
  156        0.0000000000
  157       -0.0000000000
  158        0.0035148600
  159        0.0000000000
  160       -0.0000000000
  161        0.0014965500
  162        0.0000000000
  163       -0.0000000000
  164        0.0015842100
  165       -0.0000000000
  166       -0.0005983200
  167        0.0091149500
  168        0.0030784600
  169       -0.0016884300
  170        0.0016778800
  171       -0.0037977500
  172        0.0000000000
  173        0.0000054900
  174       -0.0057952400
  175       -0.0000000000
  176        0.0000091800
  177        0.0066217800
  178        0.0000000000
  179       -0.0000918900
  180       -0.0000211500
  181        0.0000000000
  182        0.0000587500
  183        0.0003456300
  184        0.0000417000
  185        0.0000419600
  186       -0.0000000000
  187       -0.0000004100
  188        0.0000000000
  189        0.0020553000
  190        0.0002513300
  191        0.0002520300
  192        0.0000000000
  193       -0.0000105300
  194       -0.0000000000
  195       -0.0040644200
  196       -0.0005716900
  197       -0.0005677200
  198       -0.0000000000
  199        0.0000499800
  200        0.0000000000
  201       -0.0002790400
  202        0.0000000000
  203        0.0000000300
  204        0.0001762600
  205        0.0000000000
  206        0.0000058500
  207        0.0001762200
  208        0.0000000000
  209        0.0000001100
  210       -0.0000000000
  211       -0.0009578700
  212        0.0000000000
  213        0.0000229800
  214       -0.0007089100
  215        0.0000000000
  216       -0.0000045700
  217       -0.0007100100
  218        0.0000000000
  219        0.0000097900
  220        0.0000000000
 Ene=         -1.22350000
 Spin= Alpha
 Occup=        1.00000000
    1       -0.0000000000
    2        0.0000000000
    3        0.0000000000
    4        0.0000000000
    5        0.0000000000
    6       -0.0000197100
    7       -0.0000000000
    8       -0.0000000000
    9        0.0000385200
   10        0.0000000000
   11        0.0000000000
   12        0.0000618900
   13       -0.0000000000
   14        0.0000000000
   15       -0.0000704900
   16        0.0000000000
   17        0.0000000000
   18        0.0000000000
   19        0.0000000000