 Molden2AIM, Version 3.1.0 (02/25/2015)           Time: Wed Apr 23 12:50:08 2025
GAUSSIAN            220 MOL ORBITALS    302 PRIMITIVES        4 NUCLEI
  F    1    (CENTRE  1)   0.00000000  0.00000000  7.93684915  CHARGE =  9.0
  F    2    (CENTRE  2)  -3.21631363  0.00000000  0.00000000  CHARGE =  9.0
  Li   3    (CENTRE  3)   0.00000000  0.00000000  0.00000000  CHARGE =  3.0
  F    4    (CENTRE  4)   3.21631363  0.00000000  0.00000000  CHARGE =  9.0
CENTRE ASSIGNMENTS    1  1  1  1  1  1  1  1  1  1  1  1  1  1  1  1  1  1  1  1
CENTRE ASSIGNMENTS    1  1  1  1  1  1  1  1  1  1  1  1  1  1  1  1  1  1  1  1
CENTRE ASSIGNMENTS    1  1  1  1  1  1  1  1  1  1  1  1  1  1  1  1  1  1  1  1
CENTRE ASSIGNMENTS    1  1  1  1  1  1  1  1  1  1  1  1  1  1  1  2  2  2  2  2
CENTRE ASSIGNMENTS    2  2  2  2  2  2  2  2  2  2  2  2  2  2  2  2  2  2  2  2
CENTRE ASSIGNMENTS    2  2  2  2  2  2  2  2  2  2  2  2  2  2  2  2  2  2  2  2
CENTRE ASSIGNMENTS    2  2  2  2  2  2  2  2  2  2  2  2  2  2  2  2  2  2  2  2
CENTRE ASSIGNMENTS    2  2  2  2  2  2  2  2  2  2  3  3  3  3  3  3  3  3  3  3
CENTRE ASSIGNMENTS    3  3  3  3  3  3  3  3  3  3  3  3  3  3  3  3  3  3  3  3
CENTRE ASSIGNMENTS    3  3  3  3  3  3  3  3  3  3  3  3  3  3  3  3  3  3  3  3
CENTRE ASSIGNMENTS    3  3  3  3  3  3  3  3  3  3  3  3  3  3  3  3  3  3  3  3
CENTRE ASSIGNMENTS    3  3  3  3  3  3  3  4  4  4  4  4  4  4  4  4  4  4  4  4
CENTRE ASSIGNMENTS    4  4  4  4  4  4  4  4  4  4  4  4  4  4  4  4  4  4  4  4
CENTRE ASSIGNMENTS    4  4  4  4  4  4  4  4  4  4  4  4  4  4  4  4  4  4  4  4
CENTRE ASSIGNMENTS    4  4  4  4  4  4  4  4  4  4  4  4  4  4  4  4  4  4  4  4
CENTRE ASSIGNMENTS    4  4
TYPE ASSIGNMENTS      1  1  1  1  1  1  1  1  1  1  1  1  1  1  1  1  1  1  1  2
TYPE ASSIGNMENTS      2  2  3  3  3  4  4  4  2  3  4  2  3  4  2  3  4  5  6  7
TYPE ASSIGNMENTS      8  9 10  5  6  7  8  9 10  5  6  7  8  9 10 11 12 13 17 14
TYPE ASSIGNMENTS     15 18 19 16 20 11 12 13 17 14 15 18 19 16 20  1  1  1  1  1
TYPE ASSIGNMENTS      1  1  1  1  1  1  1  1  1  1  1  1  1  1  2  2  2  3  3  3
TYPE ASSIGNMENTS      4  4  4  2  3  4  2  3  4  2  3  4  5  6  7  8  9 10  5  6
TYPE ASSIGNMENTS      7  8  9 10  5  6  7  8  9 10 11 12 13 17 14 15 18 19 16 20
TYPE ASSIGNMENTS     11 12 13 17 14 15 18 19 16 20  1  1  1  1  1  1  1  1  1  1
TYPE ASSIGNMENTS      1  1  1  1  1  1  1  1  1  1  1  2  2  2  3  3  3  4  4  4
TYPE ASSIGNMENTS      2  3  4  2  3  4  2  3  4  5  6  7  8  9 10  5  6  7  8  9
TYPE ASSIGNMENTS     10  5  6  7  8  9 10 11 12 13 17 14 15 18 19 16 20 11 12 13
TYPE ASSIGNMENTS     17 14 15 18 19 16 20  1  1  1  1  1  1  1  1  1  1  1  1  1
TYPE ASSIGNMENTS      1  1  1  1  1  1  2  2  2  3  3  3  4  4  4  2  3  4  2  3
TYPE ASSIGNMENTS      4  2  3  4  5  6  7  8  9 10  5  6  7  8  9 10  5  6  7  8
TYPE ASSIGNMENTS      9 10 11 12 13 17 14 15 18 19 16 20 11 12 13 17 14 15 18 19
TYPE ASSIGNMENTS     16 20
EXPONENTS  0.1950000D+05 0.2923000D+04 0.6645000D+03 0.1875000D+03 0.6062000D+02
EXPONENTS  0.2142000D+02 0.7950000D+01 0.8815000D+00 0.1950000D+05 0.2923000D+04
EXPONENTS  0.6645000D+03 0.1875000D+03 0.6062000D+02 0.2142000D+02 0.7950000D+01
EXPONENTS  0.8815000D+00 0.2257000D+01 0.3041000D+00 0.9158000D-01 0.4388000D+02
EXPONENTS  0.9926000D+01 0.2930000D+01 0.4388000D+02 0.9926000D+01 0.2930000D+01
EXPONENTS  0.4388000D+02 0.9926000D+01 0.2930000D+01 0.9132000D+00 0.9132000D+00
EXPONENTS  0.9132000D+00 0.2672000D+00 0.2672000D+00 0.2672000D+00 0.7361000D-01
EXPONENTS  0.7361000D-01 0.7361000D-01 0.3107000D+01 0.3107000D+01 0.3107000D+01
EXPONENTS  0.3107000D+01 0.3107000D+01 0.3107000D+01 0.8550000D+00 0.8550000D+00
EXPONENTS  0.8550000D+00 0.8550000D+00 0.8550000D+00 0.8550000D+00 0.2920000D+00
EXPONENTS  0.2920000D+00 0.2920000D+00 0.2920000D+00 0.2920000D+00 0.2920000D+00
EXPONENTS  0.1917000D+01 0.1917000D+01 0.1917000D+01 0.1917000D+01 0.1917000D+01
EXPONENTS  0.1917000D+01 0.1917000D+01 0.1917000D+01 0.1917000D+01 0.1917000D+01
EXPONENTS  0.7240000D+00 0.7240000D+00 0.7240000D+00 0.7240000D+00 0.7240000D+00
EXPONENTS  0.7240000D+00 0.7240000D+00 0.7240000D+00 0.7240000D+00 0.7240000D+00
EXPONENTS  0.1950000D+05 0.2923000D+04 0.6645000D+03 0.1875000D+03 0.6062000D+02
EXPONENTS  0.2142000D+02 0.7950000D+01 0.8815000D+00 0.1950000D+05 0.2923000D+04
EXPONENTS  0.6645000D+03 0.1875000D+03 0.6062000D+02 0.2142000D+02 0.7950000D+01
EXPONENTS  0.8815000D+00 0.2257000D+01 0.3041000D+00 0.9158000D-01 0.4388000D+02
EXPONENTS  0.9926000D+01 0.2930000D+01 0.4388000D+02 0.9926000D+01 0.2930000D+01
EXPONENTS  0.4388000D+02 0.9926000D+01 0.2930000D+01 0.9132000D+00 0.9132000D+00
EXPONENTS  0.9132000D+00 0.2672000D+00 0.2672000D+00 0.2672000D+00 0.7361000D-01
EXPONENTS  0.7361000D-01 0.7361000D-01 0.3107000D+01 0.3107000D+01 0.3107000D+01
EXPONENTS  0.3107000D+01 0.3107000D+01 0.3107000D+01 0.8550000D+00 0.8550000D+00
EXPONENTS  0.8550000D+00 0.8550000D+00 0.8550000D+00 0.8550000D+00 0.2920000D+00
EXPONENTS  0.2920000D+00 0.2920000D+00 0.2920000D+00 0.2920000D+00 0.2920000D+00
EXPONENTS  0.1917000D+01 0.1917000D+01 0.1917000D+01 0.1917000D+01 0.1917000D+01
EXPONENTS  0.1917000D+01 0.1917000D+01 0.1917000D+01 0.1917000D+01 0.1917000D+01
EXPONENTS  0.7240000D+00 0.7240000D+00 0.7240000D+00 0.7240000D+00 0.7240000D+00
EXPONENTS  0.7240000D+00 0.7240000D+00 0.7240000D+00 0.7240000D+00 0.7240000D+00
EXPONENTS  0.5988000D+04 0.8989000D+03 0.2059000D+03 0.5924000D+02 0.1987000D+02
EXPONENTS  0.7406000D+01 0.2930000D+01 0.1189000D+01 0.4798000D+00 0.5988000D+04
EXPONENTS  0.8989000D+03 0.2059000D+03 0.5924000D+02 0.1987000D+02 0.7406000D+01
EXPONENTS  0.2930000D+01 0.1189000D+01 0.4798000D+00 0.7509000D-01 0.2832000D-01
EXPONENTS  0.7600000D-02 0.3266000D+01 0.6511000D+00 0.1696000D+00 0.3266000D+01
EXPONENTS  0.6511000D+00 0.1696000D+00 0.3266000D+01 0.6511000D+00 0.1696000D+00
EXPONENTS  0.5578000D-01 0.5578000D-01 0.5578000D-01 0.2050000D-01 0.2050000D-01
EXPONENTS  0.2050000D-01 0.9100000D-02 0.9100000D-02 0.9100000D-02 0.1874000D+00
EXPONENTS  0.1874000D+00 0.1874000D+00 0.1874000D+00 0.1874000D+00 0.1874000D+00
EXPONENTS  0.8010000D-01 0.8010000D-01 0.8010000D-01 0.8010000D-01 0.8010000D-01
EXPONENTS  0.8010000D-01 0.3710000D-01 0.3710000D-01 0.3710000D-01 0.3710000D-01
EXPONENTS  0.3710000D-01 0.3710000D-01 0.1829000D+00 0.1829000D+00 0.1829000D+00
EXPONENTS  0.1829000D+00 0.1829000D+00 0.1829000D+00 0.1829000D+00 0.1829000D+00
EXPONENTS  0.1829000D+00 0.1829000D+00 0.8160000D-01 0.8160000D-01 0.8160000D-01
EXPONENTS  0.8160000D-01 0.8160000D-01 0.8160000D-01 0.8160000D-01 0.8160000D-01
EXPONENTS  0.8160000D-01 0.8160000D-01 0.1950000D+05 0.2923000D+04 0.6645000D+03
EXPONENTS  0.1875000D+03 0.6062000D+02 0.2142000D+02 0.7950000D+01 0.8815000D+00
EXPONENTS  0.1950000D+05 0.2923000D+04 0.6645000D+03 0.1875000D+03 0.6062000D+02
EXPONENTS  0.2142000D+02 0.7950000D+01 0.8815000D+00 0.2257000D+01 0.3041000D+00
EXPONENTS  0.9158000D-01 0.4388000D+02 0.9926000D+01 0.2930000D+01 0.4388000D+02
EXPONENTS  0.9926000D+01 0.2930000D+01 0.4388000D+02 0.9926000D+01 0.2930000D+01
EXPONENTS  0.9132000D+00 0.9132000D+00 0.9132000D+00 0.2672000D+00 0.2672000D+00
EXPONENTS  0.2672000D+00 0.7361000D-01 0.7361000D-01 0.7361000D-01 0.3107000D+01
EXPONENTS  0.3107000D+01 0.3107000D+01 0.3107000D+01 0.3107000D+01 0.3107000D+01
EXPONENTS  0.8550000D+00 0.8550000D+00 0.8550000D+00 0.8550000D+00 0.8550000D+00
EXPONENTS  0.8550000D+00 0.2920000D+00 0.2920000D+00 0.2920000D+00 0.2920000D+00
EXPONENTS  0.2920000D+00 0.2920000D+00 0.1917000D+01 0.1917000D+01 0.1917000D+01
EXPONENTS  0.1917000D+01 0.1917000D+01 0.1917000D+01 0.1917000D+01 0.1917000D+01
EXPONENTS  0.1917000D+01 0.1917000D+01 0.7240000D+00 0.7240000D+00 0.7240000D+00
EXPONENTS  0.7240000D+00 0.7240000D+00 0.7240000D+00 0.7240000D+00 0.7240000D+00
EXPONENTS  0.7240000D+00 0.7240000D+00
MO    1     MO 0.0        OCC NO =    1.0000000  ORB. ENERGY =  -25.965000
 -0.59323009D+00 -0.11058066D+01 -0.18746140D+01 -0.28387181D+01 -0.35498270D+01
 -0.30560704D+01 -0.11748650D+01  0.50908824D-02 -0.24428397D-02 -0.45872203D-02
 -0.78112450D-02 -0.12236269D-01 -0.16398040D-01 -0.17638303D-01 -0.10590014D-01
  0.69644387D-02 -0.64776392D-01  0.52163673D-02  0.27123061D-03  0.00000000D+00
  0.00000000D+00  0.00000000D+00  0.00000000D+00  0.00000000D+00  0.00000000D+00
  0.54742396D-03  0.53536867D-03  0.35374072D-03 -0.00000000D+00 -0.00000000D+00
 -0.13246410D-03 -0.00000000D+00  0.00000000D+00  0.38700806D-04  0.00000000D+00
 -0.00000000D+00 -0.18043568D-04 -0.34275174D-01 -0.34272541D-01 -0.34178715D-01
 -0.00000000D+00  0.00000000D+00  0.00000000D+00 -0.10522559D-01 -0.10520845D-01
 -0.10557607D-01  0.00000000D+00  0.00000000D+00 -0.00000000D+00 -0.63317895D-03
 -0.63356077D-03 -0.62262925D-03 -0.00000000D+00  0.00000000D+00 -0.00000000D+00
  0.00000000D+00  0.00000000D+00  0.15220670D-03  0.00000000D+00  0.00000000D+00
  0.14689902D-03  0.00000000D+00 -0.00000000D+00  0.14006651D-03 -0.00000000D+00
  0.00000000D+00 -0.00000000D+00 -0.89617320D-05  0.00000000D+00  0.00000000D+00
 -0.79424003D-05  0.00000000D+00 -0.00000000D+00 -0.61597373D-05 -0.00000000D+00
  0.13322015D-04  0.24832813D-04  0.42097723D-04  0.63748359D-04  0.79717547D-04
  0.68629382D-04  0.26383640D-04 -0.11432463D-06 -0.38191339D-05 -0.71716572D-05
 -0.12212095D-04 -0.19130175D-04 -0.25636685D-04 -0.27575711D-04 -0.16556421D-04
  0.10888199D-04  0.50920245D-05  0.37357893D-05  0.52544471D-04 -0.34673557D-04
 -0.33909981D-04 -0.22405758D-04 -0.00000000D+00 -0.00000000D+00 -0.00000000D+00
 -0.25971439D-04 -0.25399500D-04 -0.16782523D-04  0.18183593D-04  0.00000000D+00
  0.10459701D-04  0.25143339D-04  0.00000000D+00  0.20143149D-04  0.74628174D-05
 -0.00000000D+00  0.15676015D-04 -0.23935177D-04 -0.19267818D-04 -0.14480782D-04
  0.00000000D+00  0.35445686D-04 -0.00000000D+00  0.47297911D-05  0.31782194D-05
  0.21271547D-06  0.00000000D+00 -0.16774583D-04 -0.00000000D+00  0.50133055D-05
  0.34993865D-05  0.57464012D-05  0.00000000D+00  0.10062179D-04  0.00000000D+00
 -0.53090920D-04  0.00000000D+00 -0.38131249D-04 -0.59072765D-04 -0.00000000D+00
 -0.41422108D-04 -0.62346678D-04 -0.00000000D+00 -0.42987892D-04  0.00000000D+00
 -0.16008686D-04 -0.00000000D+00 -0.14165089D-04 -0.14420470D-04 -0.00000000D+00
 -0.12112558D-04 -0.12956140D-04 -0.00000000D+00 -0.13163056D-04  0.00000000D+00
  0.15754176D-05  0.29281283D-05  0.49865522D-05  0.77766485D-05  0.10864421D-04
  0.12950589D-04  0.12277116D-04  0.77972097D-05  0.19147654D-05 -0.13118273D-05
 -0.24255233D-05 -0.40902716D-05 -0.65174778D-05 -0.90848735D-05 -0.11575607D-04
 -0.11495772D-04 -0.10369458D-04 -0.59352838D-05 -0.92271577D-04  0.17001152D-04
 -0.16272111D-06  0.00000000D+00  0.00000000D+00  0.00000000D+00  0.00000000D+00
  0.00000000D+00  0.00000000D+00  0.21014978D-04  0.15420500D-04  0.12662742D-04
 -0.00000000D+00 -0.00000000D+00 -0.41955419D-04  0.00000000D+00  0.00000000D+00
 -0.30220652D-05 -0.00000000D+00 -0.00000000D+00  0.21089084D-06 -0.83635986D-05
  0.17166462D-05 -0.12211557D-05 -0.00000000D+00  0.00000000D+00  0.00000000D+00
 -0.64858763D-05  0.37080299D-06  0.11995517D-05 -0.00000000D+00 -0.00000000D+00
  0.00000000D+00  0.21354987D-06 -0.24183736D-06 -0.25296652D-05 -0.00000000D+00
 -0.00000000D+00  0.00000000D+00  0.00000000D+00  0.00000000D+00  0.38102787D-05
  0.00000000D+00 -0.00000000D+00  0.57395601D-06  0.00000000D+00  0.00000000D+00
  0.79648099D-06  0.00000000D+00  0.00000000D+00  0.00000000D+00  0.12653492D-05
  0.00000000D+00  0.00000000D+00 -0.45770507D-06  0.00000000D+00  0.00000000D+00
  0.30278590D-05  0.00000000D+00  0.13322015D-04  0.24832813D-04  0.42097723D-04
  0.63748359D-04  0.79717547D-04  0.68629382D-04  0.26383640D-04 -0.11432463D-06
 -0.38191339D-05 -0.71716572D-05 -0.12212095D-04 -0.19130175D-04 -0.25636685D-04
 -0.27575711D-04 -0.16556421D-04  0.10888199D-04  0.50920245D-05  0.37357893D-05
  0.52544471D-04  0.34673557D-04  0.33909981D-04  0.22405758D-04 -0.00000000D+00
 -0.00000000D+00 -0.00000000D+00 -0.25971439D-04 -0.25399500D-04 -0.16782523D-04
 -0.18183593D-04  0.00000000D+00  0.10459701D-04 -0.25143339D-04  0.00000000D+00
  0.20143149D-04 -0.74628174D-05  0.00000000D+00  0.15676015D-04 -0.23935177D-04
 -0.19267818D-04 -0.14480782D-04  0.00000000D+00 -0.35445686D-04 -0.00000000D+00
  0.47297911D-05  0.31782194D-05  0.21271547D-06  0.00000000D+00  0.16774583D-04
  0.00000000D+00  0.50133055D-05  0.34993865D-05  0.57464012D-05 -0.00000000D+00
 -0.10062179D-04 -0.00000000D+00  0.53090920D-04 -0.00000000D+00 -0.38131249D-04
  0.59072765D-04 -0.00000000D+00 -0.41422108D-04  0.62346678D-04 -0.00000000D+00
 -0.42987892D-04  0.00000000D+00  0.16008686D-04 -0.00000000D+00 -0.14165089D-04
  0.14420470D-04 -0.00000000D+00 -0.12112558D-04  0.12956140D-04 -0.00000000D+00
 -0.13163056D-04 -0.00000000D+00
MO    2     MO 0.0        OCC NO =    1.0000000  ORB. ENERGY =  -25.960900
 -0.00000000D+00 -0.00000000D+00 -0.00000000D+00 -0.00000000D+00 -0.00000000D+00
 -0.00000000D+00 -0.00000000D+00  0.00000000D+00 -0.00000000D+00 -0.00000000D+00
 -0.00000000D+00 -0.00000000D+00 -0.00000000D+00 -0.00000000D+00 -0.00000000D+00
  0.00000000D+00 -0.00000000D+00 -0.00000000D+00  0.00000000D+00  0.51875419D-04
  0.50733026D-04  0.33521456D-04  0.00000000D+00  0.00000000D+00  0.00000000D+00
  0.00000000D+00  0.00000000D+00  0.00000000D+00 -0.38072295D-04 -0.00000000D+00
 -0.00000000D+00 -0.10898550D-04 -0.00000000D+00 -0.00000000D+00 -0.91433859D-06
  0.00000000D+00 -0.00000000D+00 -0.00000000D+00 -0.00000000D+00 -0.00000000D+00
 -0.00000000D+00  0.70684087D-04  0.00000000D+00  0.00000000D+00  0.00000000D+00
 -0.00000000D+00 -0.00000000D+00 -0.30580022D-04 -0.00000000D+00 -0.00000000D+00
 -0.00000000D+00  0.00000000D+00 -0.00000000D+00  0.11384844D-04  0.00000000D+00
  0.80145646D-04  0.00000000D+00  0.00000000D+00  0.86402816D-04  0.00000000D+00
  0.00000000D+00  0.12070772D-03  0.00000000D+00  0.00000000D+00 -0.00000000D+00
  0.18863058D-04  0.00000000D+00  0.00000000D+00  0.17396881D-04  0.00000000D+00
  0.00000000D+00  0.78150672D-05  0.00000000D+00  0.00000000D+00  0.00000000D+00
 -0.41969186D+00 -0.78232381D+00 -0.13262312D+01 -0.20083049D+01 -0.25113923D+01
 -0.21620748D+01 -0.83118050D+00  0.36016412D-02 -0.15677862D-02 -0.29440248D-02
 -0.50131665D-02 -0.78530956D-02 -0.10524072D-01 -0.11320058D-01 -0.67965482D-02
  0.44696960D-02 -0.46777083D-01  0.43637609D-02  0.95816717D-03 -0.14304529D-02
 -0.13989517D-02 -0.92434651D-03 -0.00000000D+00 -0.00000000D+00 -0.00000000D+00
 -0.19151406D-03 -0.18729657D-03 -0.12375476D-03  0.47391863D-03  0.00000000D+00
  0.82608736D-04 -0.20326070D-03  0.00000000D+00  0.49125626D-05  0.85725938D-04
 -0.00000000D+00  0.19653088D-05 -0.24693084D-01 -0.24703855D-01 -0.24688178D-01
 -0.00000000D+00  0.19899333D-04  0.00000000D+00 -0.85841203D-02 -0.85182161D-02
 -0.85220950D-02  0.00000000D+00 -0.35326319D-05  0.00000000D+00 -0.75715613D-03
 -0.74051829D-03 -0.73945110D-03 -0.00000000D+00  0.14218655D-05 -0.00000000D+00
 -0.66751965D-03 -0.00000000D+00 -0.15437108D-03 -0.68495939D-03 -0.00000000D+00
 -0.15102700D-03 -0.67656109D-03 -0.00000000D+00 -0.15458560D-03  0.00000000D+00
 -0.26671652D-04 -0.00000000D+00 -0.17652975D-04 -0.10982477D-05 -0.00000000D+00
 -0.18415545D-04 -0.35812426D-05 -0.00000000D+00 -0.17508297D-04  0.00000000D+00
  0.00000000D+00  0.00000000D+00  0.00000000D+00  0.00000000D+00  0.00000000D+00
  0.00000000D+00  0.00000000D+00  0.00000000D+00  0.00000000D+00 -0.00000000D+00
 -0.00000000D+00 -0.00000000D+00 -0.00000000D+00 -0.00000000D+00 -0.00000000D+00
 -0.00000000D+00 -0.00000000D+00 -0.00000000D+00 -0.20446862D-08  0.14760507D-08
 -0.00000000D+00  0.14757867D-03  0.10829118D-03  0.88924697D-04 -0.00000000D+00
 -0.00000000D+00 -0.00000000D+00  0.00000000D+00  0.00000000D+00  0.00000000D+00
 -0.16825483D-03  0.00000000D+00 -0.00000000D+00 -0.18571128D-05 -0.00000000D+00
  0.00000000D+00  0.17960175D-06  0.00000000D+00  0.00000000D+00  0.87852926D-09
 -0.00000000D+00 -0.00000000D+00  0.00000000D+00 -0.11260264D-06  0.00000000D+00
 -0.39700535D-09 -0.00000000D+00 -0.00000000D+00 -0.00000000D+00  0.10644566D-05
 -0.00000000D+00 -0.00000000D+00 -0.51619501D-10 -0.51619501D-10 -0.00000000D+00
  0.27653770D-06 -0.00000000D+00  0.14884273D-04 -0.00000000D+00  0.00000000D+00
  0.47649871D-04 -0.00000000D+00 -0.00000000D+00  0.46854111D-04 -0.00000000D+00
  0.00000000D+00  0.00000000D+00  0.23091523D-04 -0.00000000D+00  0.00000000D+00
  0.23349636D-04 -0.00000000D+00  0.00000000D+00  0.23655632D-04 -0.00000000D+00
  0.00000000D+00  0.00000000D+00  0.41969020D+00  0.78232072D+00  0.13262259D+01
  0.20082970D+01  0.25113824D+01  0.21620663D+01  0.83117722D+00 -0.36016269D-02
  0.15677815D-02  0.29440160D-02  0.50131514D-02  0.78530721D-02  0.10524040D-01
  0.11320024D-01  0.67965278D-02 -0.44696826D-02  0.46776899D-01 -0.43637434D-02
 -0.95816124D-03 -0.14304529D-02 -0.13989517D-02 -0.92434651D-03  0.00000000D+00
  0.00000000D+00  0.00000000D+00  0.19151406D-03  0.18729657D-03  0.12375476D-03
  0.47390591D-03 -0.00000000D+00 -0.82608736D-04 -0.20325796D-03 -0.00000000D+00
 -0.49125626D-05  0.85725391D-04  0.00000000D+00 -0.19653088D-05  0.24692965D-01
  0.24703736D-01  0.24688178D-01  0.00000000D+00  0.19899333D-04 -0.00000000D+00
  0.85840953D-02  0.85181910D-02  0.85220700D-02 -0.00000000D+00 -0.35326319D-05
 -0.00000000D+00  0.75715231D-03  0.74051447D-03  0.73944919D-03  0.00000000D+00
  0.14218655D-05  0.00000000D+00 -0.66751965D-03  0.00000000D+00  0.15437108D-03
 -0.68495939D-03  0.00000000D+00  0.15102700D-03 -0.67656109D-03 -0.00000000D+00
  0.15458560D-03  0.00000000D+00 -0.26671652D-04  0.00000000D+00  0.17652975D-04
 -0.10982477D-05 -0.00000000D+00  0.18415545D-04 -0.35812426D-05  0.00000000D+00
  0.17508297D-04  0.00000000D+00
MO    3     MO 0.0        OCC NO =    1.0000000  ORB. ENERGY =  -25.960900
 -0.94127579D-05 -0.17545788D-04 -0.29744425D-04 -0.45041826D-04 -0.56324961D-04
 -0.48490545D-04 -0.18641536D-04  0.80776826D-07 -0.19154353D-05 -0.35968483D-05
 -0.61248124D-05 -0.95944824D-05 -0.12857735D-04 -0.13830228D-04 -0.83036506D-05
  0.54608300D-05 -0.24803934D-05 -0.60648205D-05  0.76172042D-05 -0.00000000D+00
 -0.00000000D+00 -0.00000000D+00 -0.00000000D+00 -0.00000000D+00 -0.00000000D+00
  0.89044932D-05  0.87083999D-05  0.57540080D-05  0.00000000D+00  0.00000000D+00
 -0.18196317D-05  0.00000000D+00  0.00000000D+00 -0.63419704D-05  0.00000000D+00
 -0.00000000D+00 -0.26479202D-05 -0.24772908D-04 -0.23815501D-04 -0.59837943D-06
 -0.00000000D+00 -0.00000000D+00  0.00000000D+00  0.10010140D-05  0.96347596D-06
 -0.10222855D-04 -0.00000000D+00  0.00000000D+00  0.00000000D+00 -0.17143748D-05
 -0.20370133D-05  0.33600219D-05  0.00000000D+00 -0.00000000D+00  0.00000000D+00
 -0.00000000D+00 -0.00000000D+00  0.11140181D-04 -0.00000000D+00 -0.00000000D+00
  0.13949713D-04 -0.00000000D+00 -0.00000000D+00  0.69748566D-05  0.00000000D+00
 -0.00000000D+00 -0.00000000D+00  0.61358324D-05 -0.00000000D+00 -0.00000000D+00
  0.58732379D-05 -0.00000000D+00 -0.00000000D+00  0.78787338D-05  0.00000000D+00
 -0.41973868D+00 -0.78241109D+00 -0.13263791D+01 -0.20085289D+01 -0.25116725D+01
 -0.21623161D+01 -0.83127323D+00  0.36020430D-02 -0.15298507D-02 -0.28727887D-02
 -0.48918636D-02 -0.76630755D-02 -0.10269423D-01 -0.11046149D-01 -0.66320932D-02
  0.43615435D-02 -0.46750652D-01  0.40173073D-02  0.14804547D-02 -0.14840147D-02
 -0.14513340D-02 -0.95895774D-03 -0.00000000D+00 -0.00000000D+00 -0.00000000D+00
 -0.18274449D-03 -0.17872012D-03 -0.11808794D-03  0.71329564D-03  0.00000000D+00
  0.74706699D-04 -0.69113512D-03  0.00000000D+00  0.61119507D-05  0.13487560D-03
 -0.00000000D+00  0.39896424D-07 -0.24612303D-01 -0.24308327D-01 -0.24291333D-01
  0.00000000D+00  0.16790062D-04  0.00000000D+00 -0.84021610D-02 -0.85063415D-02
 -0.85108211D-02 -0.00000000D+00 -0.27740913D-05  0.00000000D+00 -0.95370787D-03
 -0.76744238D-03 -0.76608309D-03  0.00000000D+00  0.29958376D-05  0.00000000D+00
 -0.77300125D-03 -0.00000000D+00 -0.13591021D-03 -0.95811755D-03 -0.00000000D+00
 -0.14860715D-03 -0.95313551D-03 -0.00000000D+00 -0.13323400D-03  0.00000000D+00
  0.48552799D-04 -0.00000000D+00 -0.16649318D-04  0.12825624D-03 -0.00000000D+00
 -0.12383141D-04  0.12674416D-03 -0.00000000D+00 -0.17142215D-04 -0.00000000D+00
  0.38213892D-04  0.71025728D-04  0.12095559D-03  0.18863317D-03  0.26353127D-03
  0.31413412D-03  0.29779812D-03  0.18913191D-03  0.46445233D-04 -0.30897263D-04
 -0.57127969D-04 -0.96337525D-04 -0.15350513D-03 -0.21397460D-03 -0.27263845D-03
 -0.27075812D-03 -0.24423021D-03 -0.13979281D-03 -0.11631617D-02  0.64030539D-03
 -0.21364713D-05 -0.00000000D+00 -0.00000000D+00 -0.00000000D+00 -0.00000000D+00
 -0.00000000D+00 -0.00000000D+00  0.87779299D-05  0.64411233D-05  0.52892113D-05
  0.38640099D-09  0.00000000D+00 -0.12083918D-04  0.00000000D+00 -0.00000000D+00
  0.90002965D-07 -0.00000000D+00  0.00000000D+00  0.17227025D-07  0.33706357D-03
 -0.12801665D-03 -0.12626398D-03 -0.00000000D+00  0.00000000D+00  0.00000000D+00
 -0.17334246D-03 -0.43777978D-04 -0.44556307D-04 -0.00000000D+00 -0.00000000D+00
 -0.00000000D+00 -0.12099456D-04 -0.13996524D-04 -0.14168830D-04 -0.00000000D+00
 -0.00000000D+00  0.00000000D+00 -0.00000000D+00 -0.00000000D+00  0.22737357D-05
 -0.00000000D+00 -0.00000000D+00 -0.41048297D-07 -0.00000000D+00 -0.00000000D+00
  0.10550132D-05 -0.00000000D+00 -0.52391075D-10 -0.00000000D+00  0.40571648D-06
 -0.00000000D+00 -0.00000000D+00  0.90674103D-06 -0.00000000D+00 -0.00000000D+00
  0.88155378D-06  0.00000000D+00 -0.41974033D+00 -0.78241416D+00 -0.13263844D+01
 -0.20085368D+01 -0.25116824D+01 -0.21623245D+01 -0.83127650D+00  0.36020571D-02
 -0.15298577D-02 -0.28728019D-02 -0.48918862D-02 -0.76631107D-02 -0.10269470D-01
 -0.11046200D-01 -0.66321237D-02  0.43615636D-02 -0.46750835D-01  0.40173219D-02
  0.14804582D-02  0.14840822D-02  0.14514000D-02  0.95900133D-03  0.00000000D+00
  0.00000000D+00  0.00000000D+00 -0.18274449D-03 -0.17872012D-03 -0.11808794D-03
 -0.71329564D-03 -0.00000000D+00  0.74706699D-04  0.69113512D-03  0.00000000D+00
  0.61119507D-05 -0.13487560D-03  0.00000000D+00  0.39896424D-07 -0.24612423D-01
 -0.24308446D-01 -0.24291452D-01 -0.00000000D+00 -0.16790062D-04  0.00000000D+00
 -0.84021986D-02 -0.85063791D-02 -0.85108461D-02  0.00000000D+00  0.27740913D-05
 -0.00000000D+00 -0.95371168D-03 -0.76744429D-03 -0.76608691D-03 -0.00000000D+00
 -0.29958376D-05  0.00000000D+00  0.77300125D-03  0.00000000D+00 -0.13591021D-03
  0.95811755D-03  0.00000000D+00 -0.14860715D-03  0.95313551D-03  0.00000000D+00
 -0.13323400D-03 -0.00000000D+00 -0.48552799D-04  0.00000000D+00 -0.16649318D-04
 -0.12825624D-03  0.00000000D+00 -0.12383141D-04 -0.12674416D-03  0.00000000D+00
 -0.17142215D-04 -0.00000000D+00
MO    4     MO 0.0        OCC NO =    1.0000000  ORB. ENERGY =   -2.177670
 -0.59799416D-05 -0.11146870D-04 -0.18896685D-04 -0.28615151D-04 -0.35783346D-04
 -0.30806128D-04 -0.11843000D-04  0.51317659D-07  0.39294593D-05  0.73788286D-05
  0.12564873D-04  0.19682798D-04  0.26377265D-04  0.28372305D-04  0.17034695D-04
 -0.11202732D-04 -0.25578237D-04  0.20792002D-04  0.14018266D-04  0.00000000D+00
  0.00000000D+00  0.00000000D+00  0.00000000D+00  0.00000000D+00  0.00000000D+00
 -0.83513353D-04 -0.81674235D-04 -0.53965620D-04 -0.00000000D+00 -0.00000000D+00
  0.25945658D-04 -0.00000000D+00 -0.00000000D+00  0.32498491D-04  0.00000000D+00
  0.00000000D+00 -0.52603162D-05 -0.27525454D-05 -0.14839810D-04 -0.69412014D-05
 -0.00000000D+00 -0.00000000D+00 -0.00000000D+00 -0.31444352D-04 -0.24449767D-04
 -0.27627986D-04  0.00000000D+00  0.00000000D+00 -0.00000000D+00 -0.70503188D-05
 -0.95245168D-05 -0.88124212D-05 -0.00000000D+00 -0.00000000D+00  0.00000000D+00
  0.00000000D+00  0.00000000D+00 -0.82182708D-04  0.00000000D+00  0.00000000D+00
 -0.10490754D-03  0.00000000D+00  0.00000000D+00 -0.11942663D-03  0.00000000D+00
  0.00000000D+00  0.00000000D+00 -0.32593940D-04  0.00000000D+00  0.00000000D+00
 -0.24527533D-04  0.00000000D+00  0.00000000D+00 -0.19895792D-04  0.00000000D+00
 -0.36546666D-03 -0.68124569D-03 -0.11548789D-02 -0.17488271D-02 -0.21869144D-02
 -0.18827296D-02 -0.72378998D-03  0.31363005D-05 -0.21395953D-02 -0.40177810D-02
 -0.68415881D-02 -0.10717307D-01 -0.14362453D-01 -0.15448754D-01 -0.92754117D-02
  0.60999010D-02  0.40401015D-02 -0.49278272D-03  0.19907717D-03  0.25618969D-01
  0.25054792D-01  0.16554760D-01 -0.00000000D+00 -0.00000000D+00 -0.00000000D+00
  0.37034597D-04  0.36219027D-04  0.23931442D-04  0.73742676D-02  0.00000000D+00
  0.11681272D-04 -0.18132613D-02  0.00000000D+00 -0.25162507D-04  0.11559032D-05
 -0.00000000D+00  0.32108423D-05  0.41363576D-02  0.49904844D-03  0.50216002D-03
 -0.00000000D+00  0.84986733D-05 -0.00000000D+00  0.25717300D-02  0.31448106D-03
  0.31535694D-03  0.00000000D+00  0.22821236D-04  0.00000000D+00 -0.77593980D-03
 -0.10914153D-03 -0.10838362D-03  0.00000000D+00 -0.16526707D-04 -0.00000000D+00
  0.17763178D-02 -0.00000000D+00  0.19097453D-06 -0.25089556D-02 -0.00000000D+00
  0.83271248D-04 -0.25083862D-02 -0.00000000D+00  0.15657841D-05 -0.00000000D+00
  0.68182480D-03 -0.00000000D+00  0.16357474D-04  0.11283461D-02 -0.00000000D+00
 -0.72739017D-05  0.11300969D-02 -0.00000000D+00  0.15582385D-04  0.00000000D+00
  0.64540649D-01  0.11995759D+00  0.20428572D+00  0.31858851D+00  0.44508628D+00
  0.53055102D+00  0.50296064D+00  0.31943085D+00  0.78442820D-01 -0.23397393D-03
 -0.43260970D-03 -0.72952965D-03 -0.11624395D-02 -0.16203532D-02 -0.20645936D-02
 -0.20503545D-02 -0.18494681D-02 -0.10586010D-02 -0.18548085D-02  0.56801409D-02
 -0.15381823D-04 -0.00000000D+00 -0.00000000D+00 -0.00000000D+00 -0.00000000D+00
 -0.00000000D+00 -0.00000000D+00  0.51413176D-03  0.37726276D-03  0.30979417D-03
 -0.00000000D+00  0.00000000D+00 -0.29496422D-03  0.00000000D+00 -0.00000000D+00
  0.68394514D-05 -0.00000000D+00  0.00000000D+00 -0.63563716D-06  0.64293144D-03
 -0.42974313D-03 -0.41904967D-03 -0.00000000D+00 -0.00000000D+00  0.00000000D+00
 -0.40146729D-03 -0.32969230D-03 -0.33168189D-03 -0.00000000D+00  0.00000000D+00
 -0.00000000D+00 -0.12816234D-03 -0.13000051D-03 -0.12998807D-03 -0.00000000D+00
  0.00000000D+00  0.00000000D+00 -0.00000000D+00 -0.00000000D+00  0.16757690D-04
  0.00000000D+00 -0.00000000D+00  0.28136807D-04  0.00000000D+00 -0.00000000D+00
  0.16482692D-04 -0.00000000D+00  0.00000000D+00 -0.00000000D+00  0.18414729D-04
  0.00000000D+00 -0.00000000D+00  0.17532084D-04  0.00000000D+00 -0.00000000D+00
  0.18559021D-04 -0.00000000D+00 -0.36546666D-03 -0.68124569D-03 -0.11548789D-02
 -0.17488271D-02 -0.21869144D-02 -0.18827296D-02 -0.72378998D-03  0.31363005D-05
 -0.21395953D-02 -0.40177810D-02 -0.68415881D-02 -0.10717307D-01 -0.14362453D-01
 -0.15448754D-01 -0.92754117D-02  0.60999010D-02  0.40401015D-02 -0.49278272D-03
  0.19907717D-03 -0.25618969D-01 -0.25054792D-01 -0.16554760D-01 -0.00000000D+00
 -0.00000000D+00 -0.00000000D+00  0.37034597D-04  0.36219027D-04  0.23931442D-04
 -0.73742676D-02 -0.00000000D+00  0.11681272D-04  0.18132613D-02  0.00000000D+00
 -0.25162507D-04 -0.11559032D-05  0.00000000D+00  0.32108423D-05  0.41363576D-02
  0.49904844D-03  0.50216002D-03 -0.00000000D+00 -0.84986733D-05  0.00000000D+00
  0.25717300D-02  0.31448106D-03  0.31535694D-03  0.00000000D+00 -0.22821236D-04
 -0.00000000D+00 -0.77593980D-03 -0.10914153D-03 -0.10838362D-03 -0.00000000D+00
  0.16526707D-04  0.00000000D+00 -0.17763178D-02 -0.00000000D+00  0.19097453D-06
  0.25089556D-02 -0.00000000D+00  0.83271248D-04  0.25083862D-02 -0.00000000D+00
  0.15657841D-05  0.00000000D+00 -0.68182480D-03 -0.00000000D+00  0.16357474D-04
 -0.11283461D-02  0.00000000D+00 -0.72739017D-05 -0.11300969D-02  0.00000000D+00
  0.15582385D-04 -0.00000000D+00
MO    5     MO 0.0        OCC NO =    1.0000000  ORB. ENERGY =   -1.223500
 -0.00000000D+00 -0.00000000D+00 -0.00000000D+00 -0.00000000D+00 -0.00000000D+00
 -0.00000000D+00 -0.00000000D+00  0.00000000D+00 -0.00000000D+00 -0.00000000D+00
 -0.00000000D+00 -0.00000000D+00 -0.00000000D+00 -0.00000000D+00 -0.00000000D+00
  0.00000000D+00  0.00000000D+00  0.00000000D+00 -0.00000000D+00 -0.13296027D-03
 -0.13003224D-03 -0.85917801D-04  0.00000000D+00  0.00000000D+00  0.00000000D+00
 -0.00000000D+00 -0.00000000D+00 -0.00000000D+00  0.49015535D-04 -0.00000000D+00
 -0.00000000D+00  0.16947519D-04 -0.00000000D+00 -0.00000000D+00 -0.38524643D-05
  0.00000000D+00  0.00000000D+00  0.00000000D+00  0.00000000D+00 -0.00000000D+00
 -0.00000000D+00 -0.13556420D-03 -0.00000000D+00 -0.00000000D+00 -0.00000000D+00
 -0.00000000D+00 -0.00000000D+00  0.89767861D-04  0.00000000D+00  0.00000000D+00
  0.00000000D+00 -0.00000000D+00  0.00000000D+00 -0.34498426D-04 -0.00000000D+00
 -0.10930109D-03  0.00000000D+00 -0.00000000D+00 -0.10419582D-03  0.00000000D+00
  0.00000000D+00 -0.27429691D-03  0.00000000D+00  0.00000000D+00  0.00000000D+00
 -0.45114740D-04  0.00000000D+00  0.00000000D+00 -0.46747154D-04  0.00000000D+00
 -0.00000000D+00  0.10202562D-04  0.00000000D+00 -0.00000000D+00  0.00000000D+00
 -0.45839581D-02 -0.85446965D-02 -0.14485361D-01 -0.21935106D-01 -0.27429927D-01
 -0.23614612D-01 -0.90783190D-02  0.39337842D-04 -0.90784016D-01 -0.17047630D+00
 -0.29029174D+00 -0.45474030D+00 -0.60940550D+00 -0.65549778D+00 -0.39356001D+00
  0.25882162D+00  0.14491313D+00  0.80854284D-01  0.16695559D-02  0.38274952D-01
  0.37432067D-01  0.24732949D-01  0.00000000D+00  0.00000000D+00  0.00000000D+00
  0.14517697D-02  0.14197990D-02  0.93812126D-03  0.96795501D-02 -0.00000000D+00
  0.42744804D-03  0.14686344D-02 -0.00000000D+00  0.21198228D-03 -0.10835869D-03
  0.00000000D+00  0.68113580D-05  0.14155623D-01  0.12882271D-01  0.12920328D-01
 -0.00000000D+00  0.46846345D-04 -0.00000000D+00  0.80381423D-04 -0.40890670D-02
 -0.40296944D-02 -0.00000000D+00  0.41329626D-04  0.00000000D+00 -0.13940273D-03
 -0.10155876D-02 -0.98135550D-03  0.00000000D+00  0.38185356D-04  0.00000000D+00
  0.15743304D-02  0.00000000D+00 -0.10949207D-04  0.30636702D-02  0.00000000D+00