 Molden2AIM, Version 3.1.0 (02/25/2015)           Time: Wed Apr 23 12:50:09 2025
GAUSSIAN            224 MOL ORBITALS    224 PRIMITIVES        4 NUCLEI
  F    1    (CENTRE  1)   0.00000000  0.00000000  7.93684915  CHARGE =  9.0
  Li   2    (CENTRE  2)   0.00000000  0.00000000  0.00000000  CHARGE =  3.0
  F    3    (CENTRE  3)  -3.21631363  0.00000000  0.00000000  CHARGE =  9.0
  F    4    (CENTRE  4)   3.21631363  0.00000000  0.00000000  CHARGE =  9.0
CENTRE ASSIGNMENTS    1  1  1  1  1  1  1  1  1  1  1  1  1  1  1  1  1  1  1  1
CENTRE ASSIGNMENTS    1  1  1  1  1  1  1  1  1  1  1  1  1  1  1  1  1  1  1  1
CENTRE ASSIGNMENTS    1  1  1  1  1  1  1  1  1  1  1  1  1  1  1  1  2  2  2  2
CENTRE ASSIGNMENTS    2  2  2  2  2  2  2  2  2  2  2  2  2  2  2  2  2  2  2  2
CENTRE ASSIGNMENTS    2  2  2  2  2  2  2  2  2  2  2  2  2  2  2  2  2  2  2  2
CENTRE ASSIGNMENTS    2  2  2  2  2  2  2  2  2  2  2  2  3  3  3  3  3  3  3  3
CENTRE ASSIGNMENTS    3  3  3  3  3  3  3  3  3  3  3  3  3  3  3  3  3  3  3  3
CENTRE ASSIGNMENTS    3  3  3  3  3  3  3  3  3  3  3  3  3  3  3  3  3  3  3  3
CENTRE ASSIGNMENTS    3  3  3  3  3  3  3  3  4  4  4  4  4  4  4  4  4  4  4  4
CENTRE ASSIGNMENTS    4  4  4  4  4  4  4  4  4  4  4  4  4  4  4  4  4  4  4  4
CENTRE ASSIGNMENTS    4  4  4  4  4  4  4  4  4  4  4  4  4  4  4  4  4  4  4  4
CENTRE ASSIGNMENTS    4  4  4  4
TYPE ASSIGNMENTS      1  1  1  1  1  1  2  3  4  2  3  4  2  3  4  2  3  4  5  6
TYPE ASSIGNMENTS      7  8  9 10  5  6  7  8  9 10  5  6  7  8  9 10 11 12 13 17
TYPE ASSIGNMENTS     14 15 18 19 16 20 11 12 13 17 14 15 18 19 16 20  1  1  1  1
TYPE ASSIGNMENTS      1  1  2  3  4  2  3  4  2  3  4  2  3  4  5  6  7  8  9 10
TYPE ASSIGNMENTS      5  6  7  8  9 10  5  6  7  8  9 10 11 12 13 17 14 15 18 19
TYPE ASSIGNMENTS     16 20 11 12 13 17 14 15 18 19 16 20  1  1  1  1  1  1  2  3
TYPE ASSIGNMENTS      4  2  3  4  2  3  4  2  3  4  5  6  7  8  9 10  5  6  7  8
TYPE ASSIGNMENTS      9 10  5  6  7  8  9 10 11 12 13 17 14 15 18 19 16 20 11 12
TYPE ASSIGNMENTS     13 17 14 15 18 19 16 20  1  1  1  1  1  1  2  3  4  2  3  4
TYPE ASSIGNMENTS      2  3  4  2  3  4  5  6  7  8  9 10  5  6  7  8  9 10  5  6
TYPE ASSIGNMENTS      7  8  9 10 11 12 13 17 14 15 18 19 16 20 11 12 13 17 14 15
TYPE ASSIGNMENTS     18 19 16 20
EXPONENTS  0.1706472D-01 0.4342701D-01 0.1105148D+00 0.2812428D+00 0.7157182D+00
EXPONENTS  0.1821389D+01 0.4963129D-01 0.4963129D-01 0.4963129D-01 0.1242075D+00
EXPONENTS  0.1242075D+00 0.1242075D+00 0.3108421D+00 0.3108421D+00 0.3108421D+00
EXPONENTS  0.7779146D+00 0.7779146D+00 0.7779146D+00 0.9506481D-01 0.9506481D-01
EXPONENTS  0.9506481D-01 0.9506481D-01 0.9506481D-01 0.9506481D-01 0.2336777D+00
EXPONENTS  0.2336777D+00 0.2336777D+00 0.2336777D+00 0.2336777D+00 0.2336777D+00
EXPONENTS  0.5744006D+00 0.5744006D+00 0.5744006D+00 0.5744006D+00 0.5744006D+00
EXPONENTS  0.5744006D+00 0.1595675D+00 0.1595675D+00 0.1595675D+00 0.1595675D+00
EXPONENTS  0.1595675D+00 0.1595675D+00 0.1595675D+00 0.1595675D+00 0.1595675D+00
EXPONENTS  0.1595675D+00 0.4273065D+00 0.4273065D+00 0.4273065D+00 0.4273065D+00
EXPONENTS  0.4273065D+00 0.4273065D+00 0.4273065D+00 0.4273065D+00 0.4273065D+00
EXPONENTS  0.4273065D+00 0.1706472D-01 0.4342701D-01 0.1105148D+00 0.2812428D+00
EXPONENTS  0.7157182D+00 0.1821389D+01 0.4963129D-01 0.4963129D-01 0.4963129D-01
EXPONENTS  0.1242075D+00 0.1242075D+00 0.1242075D+00 0.3108421D+00 0.3108421D+00
EXPONENTS  0.3108421D+00 0.7779146D+00 0.7779146D+00 0.7779146D+00 0.9506481D-01
EXPONENTS  0.9506481D-01 0.9506481D-01 0.9506481D-01 0.9506481D-01 0.9506481D-01
EXPONENTS  0.2336777D+00 0.2336777D+00 0.2336777D+00 0.2336777D+00 0.2336777D+00
EXPONENTS  0.2336777D+00 0.5744006D+00 0.5744006D+00 0.5744006D+00 0.5744006D+00
EXPONENTS  0.5744006D+00 0.5744006D+00 0.1595675D+00 0.1595675D+00 0.1595675D+00
EXPONENTS  0.1595675D+00 0.1595675D+00 0.1595675D+00 0.1595675D+00 0.1595675D+00
EXPONENTS  0.1595675D+00 0.1595675D+00 0.4273065D+00 0.4273065D+00 0.4273065D+00
EXPONENTS  0.4273065D+00 0.4273065D+00 0.4273065D+00 0.4273065D+00 0.4273065D+00
EXPONENTS  0.4273065D+00 0.4273065D+00 0.1706472D-01 0.4342701D-01 0.1105148D+00
EXPONENTS  0.2812428D+00 0.7157182D+00 0.1821389D+01 0.4963129D-01 0.4963129D-01
EXPONENTS  0.4963129D-01 0.1242075D+00 0.1242075D+00 0.1242075D+00 0.3108421D+00
EXPONENTS  0.3108421D+00 0.3108421D+00 0.7779146D+00 0.7779146D+00 0.7779146D+00
EXPONENTS  0.9506481D-01 0.9506481D-01 0.9506481D-01 0.9506481D-01 0.9506481D-01
EXPONENTS  0.9506481D-01 0.2336777D+00 0.2336777D+00 0.2336777D+00 0.2336777D+00
EXPONENTS  0.2336777D+00 0.2336777D+00 0.5744006D+00 0.5744006D+00 0.5744006D+00
EXPONENTS  0.5744006D+00 0.5744006D+00 0.5744006D+00 0.1595675D+00 0.1595675D+00
EXPONENTS  0.1595675D+00 0.1595675D+00 0.1595675D+00 0.1595675D+00 0.1595675D+00
EXPONENTS  0.1595675D+00 0.1595675D+00 0.1595675D+00 0.4273065D+00 0.4273065D+00
EXPONENTS  0.4273065D+00 0.4273065D+00 0.4273065D+00 0.4273065D+00 0.4273065D+00
EXPONENTS  0.4273065D+00 0.4273065D+00 0.4273065D+00 0.1706472D-01 0.4342701D-01
EXPONENTS  0.1105148D+00 0.2812428D+00 0.7157182D+00 0.1821389D+01 0.4963129D-01
EXPONENTS  0.4963129D-01 0.4963129D-01 0.1242075D+00 0.1242075D+00 0.1242075D+00
EXPONENTS  0.3108421D+00 0.3108421D+00 0.3108421D+00 0.7779146D+00 0.7779146D+00
EXPONENTS  0.7779146D+00 0.9506481D-01 0.9506481D-01 0.9506481D-01 0.9506481D-01
EXPONENTS  0.9506481D-01 0.9506481D-01 0.2336777D+00 0.2336777D+00 0.2336777D+00
EXPONENTS  0.2336777D+00 0.2336777D+00 0.2336777D+00 0.5744006D+00 0.5744006D+00
EXPONENTS  0.5744006D+00 0.5744006D+00 0.5744006D+00 0.5744006D+00 0.1595675D+00
EXPONENTS  0.1595675D+00 0.1595675D+00 0.1595675D+00 0.1595675D+00 0.1595675D+00
EXPONENTS  0.1595675D+00 0.1595675D+00 0.1595675D+00 0.1595675D+00 0.4273065D+00
EXPONENTS  0.4273065D+00 0.4273065D+00 0.4273065D+00 0.4273065D+00 0.4273065D+00
EXPONENTS  0.4273065D+00 0.4273065D+00 0.4273065D+00 0.4273065D+00
MO    1     MO 0.0        OCC NO =    1.0000000  ORB. ENERGY =   -0.305255
  0.21328246D-02  0.47340193D-01  0.39041425D-01 -0.20443265D-01 -0.52337178D-01
 -0.13620758D-01 -0.00000000D+00  0.00000000D+00 -0.61371585D-02  0.00000000D+00
  0.00000000D+00 -0.46560220D-02  0.00000000D+00 -0.00000000D+00 -0.54237615D-02
 -0.00000000D+00 -0.00000000D+00  0.13231145D-01 -0.52323045D-03 -0.82268807D-03
  0.39276265D-03  0.00000000D+00  0.00000000D+00 -0.00000000D+00 -0.35852712D-02
 -0.33971636D-02 -0.39689324D-02  0.00000000D+00 -0.00000000D+00  0.00000000D+00
 -0.85904722D-02 -0.87035146D-02 -0.83593284D-02 -0.00000000D+00  0.00000000D+00
 -0.00000000D+00 -0.00000000D+00 -0.00000000D+00 -0.65312190D-04 -0.00000000D+00
 -0.00000000D+00 -0.94582283D-04 -0.00000000D+00 -0.00000000D+00  0.74360436D-04
 -0.00000000D+00 -0.00000000D+00 -0.00000000D+00  0.19797936D-02 -0.00000000D+00
 -0.00000000D+00  0.20709557D-02 -0.00000000D+00 -0.00000000D+00  0.18357010D-02
  0.00000000D+00  0.20074014D-03 -0.15230994D-01 -0.97076493D-02 -0.27685596D-02
 -0.45673413D-02 -0.28594944D-02 -0.00000000D+00  0.00000000D+00 -0.83754840D-03
  0.00000000D+00  0.00000000D+00 -0.17099796D-02 -0.00000000D+00 -0.00000000D+00
 -0.11965900D-02 -0.00000000D+00  0.00000000D+00 -0.42510695D-02  0.20070628D-03
 -0.25237811D-03 -0.56965017D-03  0.00000000D+00 -0.00000000D+00 -0.00000000D+00
 -0.11104076D-02 -0.55073309D-03 -0.12074398D-02  0.00000000D+00 -0.00000000D+00
  0.00000000D+00 -0.21144342D-02 -0.20891023D-02 -0.19165881D-02 -0.00000000D+00
  0.00000000D+00 -0.00000000D+00  0.00000000D+00 -0.00000000D+00 -0.45121430D-03
 -0.00000000D+00  0.00000000D+00 -0.54771684D-03 -0.00000000D+00 -0.00000000D+00
 -0.35694026D-03  0.00000000D+00 -0.00000000D+00  0.00000000D+00 -0.13656233D-02
 -0.00000000D+00  0.00000000D+00 -0.13979844D-02 -0.00000000D+00  0.00000000D+00
 -0.14254608D-02 -0.00000000D+00  0.25866416D-03  0.18325032D-01  0.45152162D-02
 -0.48779353D-02 -0.10678209D-01 -0.24334599D-02  0.21421697D-02  0.00000000D+00
  0.26335561D-02  0.23166265D-04 -0.00000000D+00  0.22802516D-02  0.72446155D-03
 -0.00000000D+00  0.25221503D-02 -0.14058493D-03  0.00000000D+00 -0.61063948D-02
 -0.20750407D-03 -0.61144196D-03  0.14334946D-03  0.00000000D+00  0.85267740D-03
  0.00000000D+00 -0.12023376D-02 -0.10989325D-02 -0.13887854D-02 -0.00000000D+00
  0.21172700D-03  0.00000000D+00 -0.17309369D-02 -0.22267219D-02 -0.22035981D-02
  0.00000000D+00 -0.25207481D-03  0.00000000D+00  0.52454724D-04  0.00000000D+00
  0.62681801D-04 -0.14009031D-04  0.00000000D+00  0.13593819D-03  0.17653710D-03
  0.00000000D+00 -0.79337893D-04  0.00000000D+00  0.87835799D-04  0.00000000D+00
 -0.10015055D-02  0.40699404D-04  0.00000000D+00 -0.97817554D-03 -0.90155861D-04
  0.00000000D+00 -0.84906974D-03 -0.00000000D+00  0.25866416D-03  0.18325032D-01
  0.45152162D-02 -0.48779353D-02 -0.10678209D-01 -0.24334599D-02 -0.21421697D-02
 -0.00000000D+00  0.26335561D-02 -0.23166265D-04  0.00000000D+00  0.22802516D-02
 -0.72446155D-03 -0.00000000D+00  0.25221503D-02  0.14058493D-03 -0.00000000D+00
 -0.61063948D-02 -0.20750407D-03 -0.61144196D-03  0.14334946D-03  0.00000000D+00
 -0.85267740D-03 -0.00000000D+00 -0.12023376D-02 -0.10989325D-02 -0.13887854D-02
  0.00000000D+00 -0.21172700D-03 -0.00000000D+00 -0.17309369D-02 -0.22267219D-02
 -0.22035981D-02 -0.00000000D+00  0.25207481D-03  0.00000000D+00 -0.52454724D-04
 -0.00000000D+00  0.62681801D-04  0.14009031D-04 -0.00000000D+00  0.13593819D-03
 -0.17653710D-03 -0.00000000D+00 -0.79337893D-04  0.00000000D+00 -0.87835799D-04
 -0.00000000D+00 -0.10015055D-02 -0.40699404D-04 -0.00000000D+00 -0.97817554D-03
  0.90155861D-04 -0.00000000D+00 -0.84906974D-03 -0.00000000D+00
MO    2     MO 0.0        OCC NO =    0.0000000  ORB. ENERGY =   -0.234277
 -0.00000000D+00  0.00000000D+00  0.00000000D+00  0.00000000D+00 -0.00000000D+00
 -0.00000000D+00  0.16009926D-01 -0.00000000D+00  0.00000000D+00  0.25900489D-01
 -0.00000000D+00  0.00000000D+00  0.44992193D-02 -0.00000000D+00 -0.00000000D+00
 -0.41127974D-01  0.00000000D+00 -0.00000000D+00 -0.00000000D+00 -0.00000000D+00
 -0.00000000D+00  0.00000000D+00 -0.34342550D-02  0.00000000D+00 -0.00000000D+00
 -0.00000000D+00 -0.00000000D+00 -0.00000000D+00  0.18621515D-02 -0.00000000D+00
 -0.00000000D+00 -0.00000000D+00 -0.00000000D+00  0.00000000D+00 -0.12715565D-02
  0.00000000D+00 -0.25296776D-02  0.00000000D+00 -0.00000000D+00 -0.26311260D-02
  0.00000000D+00 -0.00000000D+00 -0.22153753D-02  0.00000000D+00 -0.00000000D+00
  0.00000000D+00 -0.10503835D-01  0.00000000D+00 -0.00000000D+00 -0.10343378D-01
  0.00000000D+00 -0.00000000D+00 -0.10689500D-01  0.00000000D+00 -0.00000000D+00
 -0.00000000D+00  0.00000000D+00 -0.00000000D+00 -0.00000000D+00  0.00000000D+00
  0.00000000D+00 -0.00000000D+00 -0.36652866D-01  0.00000000D+00 -0.00000000D+00
  0.62921966D-02  0.00000000D+00 -0.00000000D+00 -0.28091685D-02  0.00000000D+00
 -0.00000000D+00 -0.45220651D-02 -0.00000000D+00  0.00000000D+00 -0.00000000D+00
  0.00000000D+00  0.00000000D+00  0.00000000D+00 -0.12773116D-01 -0.00000000D+00
  0.00000000D+00  0.00000000D+00  0.00000000D+00  0.00000000D+00 -0.28080762D-02
  0.00000000D+00 -0.00000000D+00  0.00000000D+00  0.00000000D+00 -0.00000000D+00
 -0.14532846D-03 -0.00000000D+00 -0.40883101D-03 -0.00000000D+00  0.00000000D+00
 -0.51525424D-03  0.00000000D+00 -0.00000000D+00 -0.24950898D-02 -0.00000000D+00
  0.00000000D+00  0.00000000D+00 -0.14197317D-02 -0.00000000D+00  0.00000000D+00
 -0.23692010D-02 -0.00000000D+00  0.00000000D+00 -0.49809267D-03 -0.00000000D+00
  0.00000000D+00 -0.00000000D+00 -0.72554734D-02 -0.10455764D+00 -0.22463154D-01
  0.12602542D-01  0.15269908D-01  0.49325452D-02 -0.13030037D-01 -0.00000000D+00
 -0.11201120D-01  0.78826462D-02 -0.00000000D+00 -0.12712756D-01 -0.69231406D-03
  0.00000000D+00 -0.49974905D-02 -0.87326670D-02 -0.00000000D+00  0.91129648D-02
 -0.11992813D-02  0.11454300D-03 -0.20339593D-02 -0.00000000D+00 -0.52540728D-02
  0.00000000D+00  0.20330889D-02  0.26612455D-03  0.93224968D-03 -0.00000000D+00
 -0.20257001D-02  0.00000000D+00  0.90394046D-03  0.23365144D-02  0.15607058D-02
  0.00000000D+00  0.12826957D-02 -0.00000000D+00 -0.93074383D-03 -0.00000000D+00
 -0.29054455D-03 -0.71262504D-03 -0.00000000D+00 -0.14155330D-02 -0.14121406D-02
 -0.00000000D+00 -0.47071299D-04  0.00000000D+00 -0.20300793D-02 -0.00000000D+00
  0.15367896D-02 -0.20606193D-02 -0.00000000D+00  0.20072071D-02 -0.19868404D-02
 -0.00000000D+00  0.11282166D-02 -0.00000000D+00  0.72554734D-02  0.10455764D+00
  0.22463154D-01 -0.12602542D-01 -0.15269908D-01 -0.49325452D-02 -0.13030037D-01
 -0.00000000D+00  0.11201120D-01  0.78826462D-02 -0.00000000D+00  0.12712756D-01
 -0.69231406D-03  0.00000000D+00  0.49974905D-02 -0.87326670D-02  0.00000000D+00
 -0.91129648D-02  0.11992813D-02 -0.11454300D-03  0.20339593D-02  0.00000000D+00
 -0.52540728D-02 -0.00000000D+00 -0.20330889D-02 -0.26612455D-03 -0.93224968D-03
  0.00000000D+00 -0.20257001D-02  0.00000000D+00 -0.90394046D-03 -0.23365144D-02
 -0.15607058D-02 -0.00000000D+00  0.12826957D-02 -0.00000000D+00 -0.93074383D-03
  0.00000000D+00  0.29054455D-03 -0.71262504D-03  0.00000000D+00  0.14155330D-02
 -0.14121406D-02  0.00000000D+00  0.47071299D-04  0.00000000D+00 -0.20300793D-02
  0.00000000D+00 -0.15367896D-02 -0.20606193D-02  0.00000000D+00 -0.20072071D-02
 -0.19868404D-02  0.00000000D+00 -0.11282166D-02 -0.00000000D+00
MO    3     MO 0.0        OCC NO =    0.0000000  ORB. ENERGY =   -0.230469
 -0.59243600D-02 -0.33962093D-01 -0.33166616D-01  0.15796566D-01  0.37686706D-01
  0.89853543D-02  0.00000000D+00  0.00000000D+00 -0.89167372D-02  0.00000000D+00
 -0.00000000D+00 -0.12392625D-01  0.00000000D+00  0.00000000D+00 -0.57513238D-02
 -0.00000000D+00 -0.00000000D+00  0.25019233D-01  0.41268613D-04  0.68251329D-04
  0.14436720D-02  0.00000000D+00 -0.00000000D+00 -0.00000000D+00  0.37474439D-02
  0.35119493D-02  0.32954467D-02 -0.00000000D+00 -0.00000000D+00 -0.00000000D+00
  0.67368241D-02  0.70363598D-02  0.69299295D-02  0.00000000D+00  0.00000000D+00
  0.00000000D+00 -0.00000000D+00  0.00000000D+00  0.82511513D-03 -0.00000000D+00
  0.00000000D+00  0.90630566D-03 -0.00000000D+00  0.00000000D+00  0.89498560D-03
 -0.00000000D+00 -0.00000000D+00 -0.00000000D+00  0.52746836D-02 -0.00000000D+00
 -0.00000000D+00  0.51927093D-02 -0.00000000D+00 -0.00000000D+00  0.52954662D-02
  0.00000000D+00  0.27261981D-03 -0.14262773D-01 -0.10496685D-01 -0.16605220D-01
 -0.17693098D-01 -0.61740537D-02  0.00000000D+00 -0.00000000D+00  0.40258305D-03
  0.00000000D+00  0.00000000D+00 -0.39921631D-03 -0.00000000D+00 -0.00000000D+00
 -0.23338607D-02 -0.00000000D+00  0.00000000D+00 -0.61521734D-02 -0.35413910D-03
 -0.16972454D-02 -0.14021350D-02  0.00000000D+00 -0.00000000D+00 -0.00000000D+00
 -0.67326173D-02 -0.43812845D-02 -0.52367427D-02  0.00000000D+00 -0.00000000D+00
  0.00000000D+00 -0.73045565D-02 -0.73917742D-02 -0.67232630D-02 -0.00000000D+00
 -0.00000000D+00 -0.00000000D+00  0.00000000D+00 -0.00000000D+00 -0.82267711D-03
 -0.00000000D+00  0.00000000D+00 -0.10762279D-02 -0.00000000D+00 -0.00000000D+00
 -0.84649618D-03 -0.00000000D+00 -0.00000000D+00  0.00000000D+00 -0.23695476D-02
 -0.00000000D+00 -0.00000000D+00 -0.20631755D-02 -0.00000000D+00  0.00000000D+00
 -0.22712357D-02  0.00000000D+00  0.41140406D-02  0.47517503D-01  0.10738500D-01
 -0.13361751D-01 -0.30369670D-01 -0.64449919D-02  0.30278508D-02  0.00000000D+00
  0.54375066D-02  0.63651470D-03 -0.00000000D+00  0.79323873D-02 -0.39469918D-03
  0.00000000D+00  0.24586196D-03  0.28371184D-02 -0.00000000D+00 -0.10368898D-01
 -0.99459299D-03 -0.15508825D-02 -0.97228884D-03  0.00000000D+00  0.11191690D-02
  0.00000000D+00 -0.32589467D-02 -0.36897311D-02 -0.42692547D-02 -0.00000000D+00
 -0.68069499D-04 -0.00000000D+00 -0.58349421D-02 -0.68503469D-02 -0.63223247D-02
  0.00000000D+00  0.19750236D-04  0.00000000D+00 -0.64605020D-04  0.00000000D+00
 -0.84301258D-03 -0.21796506D-03  0.00000000D+00 -0.54815970D-03 -0.18850186D-03
  0.00000000D+00 -0.87197519D-03  0.00000000D+00  0.55258793D-03 -0.00000000D+00
 -0.28945760D-02  0.33137333D-03 -0.00000000D+00 -0.32888860D-02  0.36420499D-03
 -0.00000000D+00 -0.28494782D-02  0.00000000D+00  0.41140406D-02  0.47517503D-01
  0.10738500D-01 -0.13361751D-01 -0.30369670D-01 -0.64449919D-02 -0.30278508D-02
 -0.00000000D+00  0.54375066D-02 -0.63651470D-03 -0.00000000D+00  0.79323873D-02
  0.39469918D-03  0.00000000D+00  0.24586196D-03 -0.28371184D-02 -0.00000000D+00
 -0.10368898D-01 -0.99459299D-03 -0.15508825D-02 -0.97228884D-03  0.00000000D+00
 -0.11191690D-02  0.00000000D+00 -0.32589467D-02 -0.36897311D-02 -0.42692547D-02
  0.00000000D+00  0.68069499D-04  0.00000000D+00 -0.58349421D-02 -0.68503469D-02
 -0.63223247D-02 -0.00000000D+00 -0.19750236D-04 -0.00000000D+00  0.64605020D-04
  0.00000000D+00 -0.84301258D-03  0.21796506D-03  0.00000000D+00 -0.54815970D-03
  0.18850186D-03  0.00000000D+00 -0.87197519D-03 -0.00000000D+00 -0.55258793D-03
  0.00000000D+00 -0.28945760D-02 -0.33137333D-03 -0.00000000D+00 -0.32888860D-02
 -0.36420499D-03  0.00000000D+00 -0.28494782D-02  0.00000000D+00
MO    4     MO 0.0        OCC NO =    0.0000000  ORB. ENERGY =   -0.214718
  0.00000000D+00 -0.00000000D+00  0.00000000D+00  0.00000000D+00 -0.00000000D+00
 -0.00000000D+00 -0.00000000D+00  0.28944051D-01  0.00000000D+00 -0.00000000D+00
  0.55937721D-01 -0.00000000D+00  0.00000000D+00 -0.20173484D-02  0.00000000D+00
  0.00000000D+00 -0.73239935D-01 -0.00000000D+00  0.00000000D+00 -0.00000000D+00
 -0.00000000D+00 -0.00000000D+00 -0.00000000D+00 -0.56895337D-02 -0.00000000D+00
 -0.00000000D+00 -0.00000000D+00  0.00000000D+00  0.00000000D+00  0.57784942D-02
 -0.00000000D+00 -0.00000000D+00 -0.00000000D+00  0.00000000D+00 -0.00000000D+00
 -0.56425387D-02  0.00000000D+00 -0.67618253D-02  0.00000000D+00  0.00000000D+00
 -0.65526922D-02 -0.00000000D+00  0.00000000D+00 -0.60916221D-02  0.00000000D+00
 -0.00000000D+00  0.00000000D+00 -0.21947420D-01 -0.00000000D+00  0.00000000D+00
 -0.22312254D-01 -0.00000000D+00  0.00000000D+00 -0.22884009D-01 -0.00000000D+00
  0.00000000D+00 -0.00000000D+00 -0.00000000D+00 -0.00000000D+00  0.00000000D+00
  0.00000000D+00  0.00000000D+00 -0.00000000D+00  0.34179134D-03  0.00000000D+00
 -0.00000000D+00  0.11778005D-01  0.00000000D+00  0.00000000D+00 -0.77596933D-02
 -0.00000000D+00  0.00000000D+00 -0.17856535D-01 -0.00000000D+00 -0.00000000D+00
  0.00000000D+00  0.00000000D+00 -0.00000000D+00 -0.00000000D+00  0.59146081D-03
  0.00000000D+00  0.00000000D+00  0.00000000D+00  0.00000000D+00  0.00000000D+00
 -0.33786424D-02  0.00000000D+00  0.00000000D+00  0.00000000D+00 -0.00000000D+00
 -0.00000000D+00  0.31298398D-02 -0.00000000D+00 -0.29280596D-02 -0.00000000D+00
  0.00000000D+00 -0.26289350D-02  0.00000000D+00  0.00000000D+00 -0.30000172D-02
 -0.00000000D+00 -0.00000000D+00 -0.00000000D+00 -0.74626982D-02 -0.00000000D+00
  0.00000000D+00 -0.66164984D-02 -0.00000000D+00  0.00000000D+00 -0.76592147D-02
 -0.00000000D+00  0.00000000D+00  0.00000000D+00 -0.00000000D+00 -0.00000000D+00
 -0.00000000D+00 -0.00000000D+00 -0.00000000D+00 -0.00000000D+00  0.85921621D-02
 -0.00000000D+00 -0.00000000D+00  0.16782719D-01 -0.00000000D+00  0.00000000D+00
 -0.12518266D-02  0.00000000D+00  0.00000000D+00 -0.21330659D-01 -0.00000000D+00
 -0.00000000D+00 -0.00000000D+00 -0.00000000D+00  0.21071721D-02 -0.00000000D+00
  0.26706318D-02 -0.00000000D+00 -0.00000000D+00 -0.00000000D+00 -0.14996538D-02
 -0.00000000D+00 -0.33547704D-02 -0.00000000D+00 -0.00000000D+00 -0.00000000D+00
  0.49564665D-03  0.00000000D+00  0.33535426D-02  0.00000000D+00 -0.22647336D-02
 -0.00000000D+00  0.00000000D+00 -0.16475108D-02 -0.00000000D+00  0.00000000D+00
 -0.17970946D-02 -0.00000000D+00  0.21550820D-03  0.00000000D+00 -0.67393699D-02
 -0.00000000D+00  0.00000000D+00 -0.81267549D-02 -0.00000000D+00  0.00000000D+00
 -0.74932535D-02 -0.00000000D+00  0.20193528D-03  0.00000000D+00  0.00000000D+00
  0.00000000D+00  0.00000000D+00  0.00000000D+00  0.00000000D+00 -0.00000000D+00
  0.85921621D-02 -0.00000000D+00 -0.00000000D+00  0.16782719D-01 -0.00000000D+00
  0.00000000D+00 -0.12518266D-02  0.00000000D+00 -0.00000000D+00 -0.21330659D-01
  0.00000000D+00  0.00000000D+00  0.00000000D+00  0.00000000D+00 -0.21071721D-02
  0.00000000D+00  0.26706318D-02  0.00000000D+00  0.00000000D+00  0.00000000D+00
  0.14996538D-02  0.00000000D+00 -0.33547704D-02  0.00000000D+00  0.00000000D+00
  0.00000000D+00 -0.49564665D-03 -0.00000000D+00  0.33535426D-02  0.00000000D+00
 -0.22647336D-02  0.00000000D+00  0.00000000D+00 -0.16475108D-02  0.00000000D+00
  0.00000000D+00 -0.17970946D-02  0.00000000D+00 -0.21550820D-03 -0.00000000D+00
 -0.67393699D-02  0.00000000D+00  0.00000000D+00 -0.81267549D-02  0.00000000D+00
  0.00000000D+00 -0.74932535D-02  0.00000000D+00 -0.20193528D-03
MO    5     MO 0.0        OCC NO =    0.0000000  ORB. ENERGY =   -0.191021
  0.13597583D-01 -0.30509870D-01 -0.86466300D-02  0.85776798D-02  0.13370128D-01
  0.15654118D-02  0.00000000D+00 -0.00000000D+00  0.19743177D-01  0.00000000D+00
  0.00000000D+00  0.21548029D-01 -0.00000000D+00  0.00000000D+00  0.91357428D-02
 -0.00000000D+00 -0.00000000D+00 -0.40838421D-01  0.19679418D-02  0.15618804D-02
 -0.36889085D-03 -0.00000000D+00 -0.00000000D+00  0.00000000D+00  0.25218653D-02
  0.31394608D-02  0.37937023D-02  0.00000000D+00 -0.00000000D+00 -0.00000000D+00
  0.44281929D-02  0.37735360D-02  0.33616565D-02 -0.00000000D+00  0.00000000D+00
  0.00000000D+00 -0.00000000D+00 -0.00000000D+00 -0.14243104D-02 -0.00000000D+00
 -0.00000000D+00 -0.15339039D-02 -0.00000000D+00  0.00000000D+00 -0.15599248D-02
  0.00000000D+00 -0.00000000D+00 -0.00000000D+00 -0.86317211D-02 -0.00000000D+00
 -0.00000000D+00 -0.85282818D-02 -0.00000000D+00 -0.00000000D+00 -0.85004070D-02
 -0.00000000D+00 -0.10316188D-01 -0.12915460D-01 -0.21713061D-02 -0.14261048D-02
 -0.37766444D-02 -0.17709704D-02  0.00000000D+00  0.00000000D+00 -0.43187712D-02
  0.00000000D+00  0.00000000D+00 -0.40290918D-02 -0.00000000D+00  0.00000000D+00
  0.27772526D-02 -0.00000000D+00 -0.00000000D+00  0.90157738D-02 -0.16031054D-02
  0.45735443D-03  0.15610575D-04  0.00000000D+00 -0.00000000D+00 -0.00000000D+00
 -0.13690670D-02 -0.13202090D-02  0.28745242D-03  0.00000000D+00 -0.00000000D+00
 -0.00000000D+00 -0.16381363D-02 -0.10534993D-02 -0.19056656D-02  0.00000000D+00
  0.00000000D+00 -0.00000000D+00  0.00000000D+00  0.00000000D+00  0.11687102D-02
 -0.00000000D+00  0.00000000D+00  0.30659834D-03 -0.00000000D+00  0.00000000D+00
  0.11765637D-02  0.00000000D+00 -0.00000000D+00 -0.00000000D+00  0.32063522D-02
 -0.00000000D+00 -0.00000000D+00  0.29699485D-02 -0.00000000D+00 -0.00000000D+00
  0.30644343D-02 -0.00000000D+00  0.13459712D-01  0.17261159D-01  0.17445214D-01
 -0.68080872D-02 -0.16082245D-01 -0.43386088D-02 -0.29031202D-02  0.00000000D+00
 -0.24719514D-02 -0.11112008D-02  0.00000000D+00 -0.28711874D-02 -0.23409407D-02
  0.00000000D+00 -0.32009761D-02  0.82188239D-02 -0.00000000D+00  0.11315764D-01
 -0.30273838D-03  0.21142238D-03 -0.45986824D-03  0.00000000D+00 -0.45083877D-03
  0.00000000D+00 -0.98545106D-03 -0.12262056D-02 -0.10464887D-02 -0.00000000D+00
  0.96429999D-03 -0.00000000D+00 -0.24157726D-02 -0.26324696D-02 -0.25576777D-02
 -0.00000000D+00  0.28879858D-04  0.00000000D+00  0.21445139D-04  0.00000000D+00
  0.24186969D-03  0.83843880D-04  0.00000000D+00  0.29731937D-03 -0.15974375D-04
  0.00000000D+00  0.28779726D-03  0.00000000D+00  0.13727930D-02 -0.00000000D+00
  0.23714753D-02  0.13593358D-02 -0.00000000D+00  0.26925413D-02  0.12940467D-02
 -0.00000000D+00  0.23936401D-02 -0.00000000D+00  0.13459712D-01  0.17261159D-01
  0.17445214D-01 -0.68080872D-02 -0.16082245D-01 -0.43386088D-02  0.29031202D-02
 -0.00000000D+00 -0.24719514D-02  0.11112008D-02  0.00000000D+00 -0.28711874D-02
  0.23409407D-02 -0.00000000D+00 -0.32009761D-02 -0.82188239D-02 -0.00000000D+00
  0.11315764D-01 -0.30273838D-03  0.21142238D-03 -0.45986824D-03  0.00000000D+00
  0.45083831D-03 -0.00000000D+00 -0.98545106D-03 -0.12262056D-02 -0.10464887D-02
  0.00000000D+00 -0.96429999D-03  0.00000000D+00 -0.24157726D-02 -0.26324696D-02
 -0.25576777D-02 -0.00000000D+00 -0.28879858D-04  0.00000000D+00 -0.21445139D-04
 -0.00000000D+00  0.24186969D-03 -0.83843880D-04 -0.00000000D+00  0.29731937D-03
  0.15974375D-04 -0.00000000D+00  0.28779726D-03 -0.00000000D+00 -0.13727930D-02
 -0.00000000D+00  0.23714753D-02 -0.13593358D-02 -0.00000000D+00  0.26925413D-02
 -0.12940467D-02 -0.00000000D+00  0.23936401D-02 -0.00000000D+00
MO    6     MO 0.0        OCC NO =    0.0000000  ORB. ENERGY =   -0.183461
 -0.00000000D+00  0.00000000D+00  0.00000000D+00  0.00000000D+00 -0.00000000D+00
 -0.00000000D+00  0.26983063D-01  0.00000000D+00 -0.00000000D+00  0.47543119D-01
  0.00000000D+00  0.00000000D+00 -0.15594394D-02 -0.00000000D+00 -0.00000000D+00
 -0.62392861D-01 -0.00000000D+00  0.00000000D+00 -0.00000000D+00 -0.00000000D+00
 -0.00000000D+00 -0.00000000D+00 -0.12288469D-02 -0.00000000D+00 -0.00000000D+00
 -0.00000000D+00 -0.00000000D+00  0.00000000D+00  0.12048404D-02  0.00000000D+00
 -0.00000000D+00 -0.00000000D+00 -0.00000000D+00 -0.00000000D+00 -0.14241022D-02
 -0.00000000D+00 -0.55057842D-02 -0.00000000D+00 -0.00000000D+00 -0.56216095D-02
 -0.00000000D+00 -0.00000000D+00 -0.55942186D-02 -0.00000000D+00 -0.00000000D+00
 -0.00000000D+00 -0.18617280D-01 -0.00000000D+00  0.00000000D+00 -0.18391310D-01
 -0.00000000D+00  0.00000000D+00 -0.18593475D-01 -0.00000000D+00 -0.00000000D+00
  0.00000000D+00 -0.00000000D+00 -0.00000000D+00 -0.00000000D+00  0.00000000D+00
  0.00000000D+00  0.00000000D+00 -0.29102273D-01  0.00000000D+00  0.00000000D+00
 -0.57365215D-02  0.00000000D+00  0.00000000D+00 -0.13478688D-02 -0.00000000D+00
 -0.00000000D+00  0.27496745D-02  0.00000000D+00 -0.00000000D+00 -0.00000000D+00
  0.00000000D+00  0.00000000D+00 -0.00000000D+00 -0.40458690D-02  0.00000000D+00
  0.00000000D+00  0.00000000D+00  0.00000000D+00 -0.00000000D+00 -0.86399141D-03
  0.00000000D+00  0.00000000D+00  0.00000000D+00  0.00000000D+00 -0.00000000D+00
 -0.25648296D-03  0.00000000D+00  0.32340960D-03 -0.00000000D+00 -0.00000000D+00
  0.30795501D-04  0.00000000D+00  0.00000000D+00 -0.19469031D-03 -0.00000000D+00
 -0.00000000D+00 -0.00000000D+00  0.51376640D-04  0.00000000D+00 -0.00000000D+00
  0.34007693D-03  0.00000000D+00 -0.00000000D+00  0.63170820D-03  0.00000000D+00
 -0.00000000D+00  0.00000000D+00  0.92196965D-02 -0.24615079D-03  0.12315158D-01
 -0.29398898D-01 -0.51674085D-01 -0.72965693D-02 -0.13980430D-01 -0.00000000D+00
 -0.10779301D-02 -0.58689059D-02 -0.00000000D+00 -0.57637406D-02 -0.54227723D-02
  0.00000000D+00 -0.76438372D-03  0.92113639D-02  0.00000000D+00  0.33984271D-02
 -0.56155249D-02 -0.38759469D-02 -0.41108237D-02 -0.00000000D+00 -0.13633676D-02
  0.00000000D+00 -0.12094367D-01 -0.11033985D-01 -0.10984509D-01 -0.00000000D+00
 -0.11600451D-02 -0.00000000D+00 -0.13984248D-01 -0.14428683D-01 -0.14469990D-01
  0.00000000D+00  0.86931291D-03  0.00000000D+00 -0.72073825D-03  0.00000000D+00
  0.17373593D-03 -0.43730586D-03  0.00000000D+00 -0.26846909D-03 -0.33780227D-03
  0.00000000D+00  0.14627611D-03 -0.00000000D+00  0.64206674D-03  0.00000000D+00
  0.86561163D-03  0.88257204D-03 -0.00000000D+00  0.11523544D-02  0.66503555D-03
  0.00000000D+00  0.92001063D-03  0.00000000D+00 -0.92196965D-02  0.24615147D-03
 -0.12315158D-01  0.29398898D-01  0.51674085D-01  0.72965693D-02 -0.13980430D-01
 -0.00000000D+00  0.10779301D-02 -0.58689059D-02 -0.00000000D+00  0.57637406D-02
 -0.54227723D-02  0.00000000D+00  0.76438372D-03  0.92113639D-02  0.00000000D+00
 -0.33984271D-02  0.56155249D-02  0.38759469D-02  0.41108237D-02  0.00000000D+00
 -0.13633676D-02 -0.00000000D+00  0.12094367D-01  0.11033985D-01  0.10984509D-01
  0.00000000D+00 -0.11600451D-02  0.00000000D+00  0.13984248D-01  0.14428683D-01
  0.14469990D-01 -0.00000000D+00  0.86931291D-03 -0.00000000D+00 -0.72073825D-03
  0.00000000D+00 -0.17373593D-03 -0.43730586D-03  0.00000000D+00  0.26846909D-03
 -0.33780227D-03  0.00000000D+00 -0.14627611D-03  0.00000000D+00  0.64206674D-03
  0.00000000D+00 -0.86561163D-03  0.88257204D-03  0.00000000D+00 -0.11523544D-02
  0.66503555D-03  0.00000000D+00 -0.92001063D-03 -0.00000000D+00
MO    7     MO 0.0        OCC NO =    0.0000000  ORB. ENERGY =   -0.160249
 -0.00000000D+00  0.00000000D+00 -0.00000000D+00 -0.00000000D+00  0.00000000D+00
  0.00000000D+00  0.00000000D+00  0.19979386D-01 -0.00000000D+00  0.00000000D+00
  0.33441904D-01  0.00000000D+00 -0.00000000D+00  0.13241775D-03 -0.00000000D+00
 -0.00000000D+00 -0.44970952D-01  0.00000000D+00 -0.00000000D+00 -0.00000000D+00
 -0.00000000D+00 -0.00000000D+00  0.00000000D+00  0.28812424D-02  0.00000000D+00
  0.00000000D+00  0.00000000D+00  0.00000000D+00  0.00000000D+00 -0.32454051D-02
  0.00000000D+00  0.00000000D+00  0.00000000D+00 -0.00000000D+00  0.00000000D+00
  0.29005404D-02 -0.00000000D+00 -0.36511714D-02  0.00000000D+00 -0.00000000D+00
 -0.36154293D-02  0.00000000D+00 -0.00000000D+00 -0.40280518D-02 -0.00000000D+00
 -0.00000000D+00 -0.00000000D+00 -0.12914868D-01  0.00000000D+00 -0.00000000D+00
 -0.13028513D-01  0.00000000D+00 -0.00000000D+00 -0.12566027D-01  0.00000000D+00
  0.00000000D+00 -0.00000000D+00  0.00000000D+00  0.00000000D+00 -0.00000000D+00
 -0.00000000D+00 -0.00000000D+00  0.00000000D+00 -0.29263329D-02  0.00000000D+00
  0.00000000D+00 -0.33482561D-01 -0.00000000D+00 -0.00000000D+00  0.17218218D-01
  0.00000000D+00 -0.00000000D+00  0.37637938D-01  0.00000000D+00  0.00000000D+00
 -0.00000000D+00 -0.00000000D+00  0.00000000D+00  0.00000000D+00 -0.19839927D-02
 -0.00000000D+00 -0.00000000D+00 -0.00000000D+00  0.00000000D+00  0.00000000D+00
  0.36624153D-02 -0.00000000D+00 -0.00000000D+00 -0.00000000D+00 -0.00000000D+00
 -0.00000000D+00 -0.36491695D-02  0.00000000D+00  0.65539034D-02  0.00000000D+00
 -0.00000000D+00  0.42319178D-02  0.00000000D+00 -0.00000000D+00  0.61955755D-02
  0.00000000D+00  0.00000000D+00  0.00000000D+00  0.15668121D-01  0.00000000D+00