[Molden Format]
[Title]
 Molden2AIM, Version 3.1.0 (02/25/2015)           Time: Wed Apr 23 12:50:09 2025

[Atoms] Angs
E+       1       9     0.00000000     0.00000000     4.20000000
E+       2       3     0.00000000     0.00000000     0.00000000
E+       3       9    -1.70200000     0.00000000     0.00000000
E+       4       9     1.70200000     0.00000000     0.00000000
[GTO]
    1 0
 S   1 1.0
    0.1706471990D-01      0.1000000000D+01
 S   1 1.0
    0.4342700594D-01      0.1000000000D+01
 S   1 1.0
    0.1105148433D+00      0.1000000000D+01
 S   1 1.0
    0.2812427502D+00      0.1000000000D+01
 S   1 1.0
    0.7157181984D+00      0.1000000000D+01
 S   1 1.0
    0.1821389313D+01      0.1000000000D+01
 P   1 1.0
    0.4963129460D-01      0.1000000000D+01
 P   1 1.0
    0.1242074681D+00      0.1000000000D+01
 P   1 1.0
    0.3108420859D+00      0.1000000000D+01
 P   1 1.0
    0.7779145957D+00      0.1000000000D+01
 D   1 1.0
    0.9506480910D-01      0.1000000000D+01
 D   1 1.0
    0.2336777293D+00      0.1000000000D+01
 D   1 1.0
    0.5744005767D+00      0.1000000000D+01
 F   1 1.0
    0.1595675148D+00      0.1000000000D+01
 F   1 1.0
    0.4273064585D+00      0.1000000000D+01

    2 0
 S   1 1.0
    0.1706471990D-01      0.1000000000D+01
 S   1 1.0
    0.4342700594D-01      0.1000000000D+01
 S   1 1.0
    0.1105148433D+00      0.1000000000D+01
 S   1 1.0
    0.2812427502D+00      0.1000000000D+01
 S   1 1.0
    0.7157181984D+00      0.1000000000D+01
 S   1 1.0
    0.1821389313D+01      0.1000000000D+01
 P   1 1.0
    0.4963129460D-01      0.1000000000D+01
 P   1 1.0
    0.1242074681D+00      0.1000000000D+01
 P   1 1.0
    0.3108420859D+00      0.1000000000D+01
 P   1 1.0
    0.7779145957D+00      0.1000000000D+01
 D   1 1.0
    0.9506480910D-01      0.1000000000D+01
 D   1 1.0
    0.2336777293D+00      0.1000000000D+01
 D   1 1.0
    0.5744005767D+00      0.1000000000D+01
 F   1 1.0
    0.1595675148D+00      0.1000000000D+01
 F   1 1.0
    0.4273064585D+00      0.1000000000D+01

    3 0
 S   1 1.0
    0.1706471990D-01      0.1000000000D+01
 S   1 1.0
    0.4342700594D-01      0.1000000000D+01
 S   1 1.0
    0.1105148433D+00      0.1000000000D+01
 S   1 1.0
    0.2812427502D+00      0.1000000000D+01
 S   1 1.0
    0.7157181984D+00      0.1000000000D+01
 S   1 1.0
    0.1821389313D+01      0.1000000000D+01
 P   1 1.0
    0.4963129460D-01      0.1000000000D+01
 P   1 1.0
    0.1242074681D+00      0.1000000000D+01
 P   1 1.0
    0.3108420859D+00      0.1000000000D+01
 P   1 1.0
    0.7779145957D+00      0.1000000000D+01
 D   1 1.0
    0.9506480910D-01      0.1000000000D+01
 D   1 1.0
    0.2336777293D+00      0.1000000000D+01
 D   1 1.0
    0.5744005767D+00      0.1000000000D+01
 F   1 1.0
    0.1595675148D+00      0.1000000000D+01
 F   1 1.0
    0.4273064585D+00      0.1000000000D+01

    4 0
 S   1 1.0
    0.1706471990D-01      0.1000000000D+01
 S   1 1.0
    0.4342700594D-01      0.1000000000D+01
 S   1 1.0
    0.1105148433D+00      0.1000000000D+01
 S   1 1.0
    0.2812427502D+00      0.1000000000D+01
 S   1 1.0
    0.7157181984D+00      0.1000000000D+01
 S   1 1.0
    0.1821389313D+01      0.1000000000D+01
 P   1 1.0
    0.4963129460D-01      0.1000000000D+01
 P   1 1.0
    0.1242074681D+00      0.1000000000D+01
 P   1 1.0
    0.3108420859D+00      0.1000000000D+01
 P   1 1.0
    0.7779145957D+00      0.1000000000D+01
 D   1 1.0
    0.9506480910D-01      0.1000000000D+01
 D   1 1.0
    0.2336777293D+00      0.1000000000D+01
 D   1 1.0
    0.5744005767D+00      0.1000000000D+01
 F   1 1.0
    0.1595675148D+00      0.1000000000D+01
 F   1 1.0
    0.4273064585D+00      0.1000000000D+01


[MO]
 Ene=         -0.30525500
 Spin= Alpha
 Occup=        1.00000000
    1        0.0633826900
    2        0.6982324300
    3        0.2857920300
    4       -0.0742726900
    5       -0.0943721100
    6       -0.0121895900
    7       -0.0000000000
    8        0.0000000000
    9       -0.1837946000
   10        0.0000000000
   11        0.0000000000
   12       -0.0442986300
   13        0.0000000000
   14       -0.0000000000
   15       -0.0163940300
   16       -0.0000000000
   17       -0.0000000000
   18        0.0127055200
   19       -0.0195321000
   20       -0.0307108000
   21        0.0146617600
   22        0.0000000000
   23        0.0000000000
   24       -0.0000000000
   25       -0.0277352600
   26       -0.0262800800
   27       -0.0307032200
   28        0.0000000000
   29       -0.0000000000
   30        0.0000000000
   31       -0.0137715100
   32       -0.0139527300
   33       -0.0134009600
   34       -0.0000000000
   35        0.0000000000
   36       -0.0000000000
   37       -0.0000000000
   38       -0.0000000000
   39       -0.0027568600
   40       -0.0000000000
   41       -0.0000000000
   42       -0.0017854400
   43       -0.0000000000
   44       -0.0000000000
   45        0.0014037100
   46       -0.0000000000
   47       -0.0000000000
   48       -0.0000000000
   49        0.0091096500
   50       -0.0000000000
   51       -0.0000000000
   52        0.0042615500
   53       -0.0000000000
   54       -0.0000000000
   55        0.0037774500
   56        0.0000000000
   57        0.0059655400
   58       -0.2246457600
   59       -0.0710621800
   60       -0.0100584900
   61       -0.0082356300
   62       -0.0025590400
   63       -0.0000000000
   64        0.0000000000
   65       -0.0250827600
   66        0.0000000000
   67        0.0000000000
   68       -0.0162692000
   69       -0.0000000000
   70       -0.0000000000
   71       -0.0036168500
   72       -0.0000000000
   73        0.0000000000
   74       -0.0040821900
   75        0.0074923300
   76       -0.0094212300
   77       -0.0212649400
   78        0.0000000000
   79       -0.0000000000
   80       -0.0000000000
   81       -0.0085899900
   82       -0.0042604100
   83       -0.0093406200
   84        0.0000000000
   85       -0.0000000000
   86        0.0000000000
   87       -0.0033896800
   88       -0.0033490700
   89       -0.0030725100
   90       -0.0000000000
   91        0.0000000000
   92       -0.0000000000
   93        0.0000000000
   94       -0.0000000000
   95       -0.0190459800
   96       -0.0000000000
   97        0.0000000000
   98       -0.0103393100
   99       -0.0000000000
  100       -0.0000000000
  101       -0.0067380000
  102        0.0000000000
  103       -0.0000000000
  104        0.0000000000
  105       -0.0062836600
  106       -0.0000000000
  107        0.0000000000
  108       -0.0028767300
  109       -0.0000000000
  110        0.0000000000
  111       -0.0029332700
  112       -0.0000000000
  113        0.0076869100
  114        0.2702805100
  115        0.0330524000
  116       -0.0177220900
  117       -0.0192544800
  118       -0.0021777700
  119        0.0641533400
  120        0.0000000000
  121        0.0788693000
  122        0.0002204100
  123       -0.0000000000
  124        0.0216949200
  125        0.0021897800
  126       -0.0000000000
  127        0.0076235300
  128       -0.0001350000
  129        0.0000000000
  130       -0.0058638100
  131       -0.0077460900
  132       -0.0228250200
  133        0.0053512100
  134        0.0000000000
  135        0.0183772300
  136        0.0000000000
  137       -0.0093011500
  138       -0.0085012200
  139       -0.0107434900
  140       -0.0000000000
  141        0.0009456400
  142        0.0000000000
  143       -0.0027748900
  144       -0.0035696900
  145       -0.0035326200
  146        0.0000000000
  147       -0.0002333100
  148        0.0000000000
  149        0.0022141400
  150        0.0000000000
  151        0.0026458300
  152       -0.0002644500
  153        0.0000000000
  154        0.0025661200
  155        0.0033325100
  156        0.0000000000
  157       -0.0014976700
  158        0.0000000000
  159        0.0004041600
  160        0.0000000000
  161       -0.0046082400
  162        0.0000837500
  163        0.0000000000
  164       -0.0020128600
  165       -0.0001855200
  166        0.0000000000
  167       -0.0017471900
  168       -0.0000000000
  169        0.0076869100
  170        0.2702805100
  171        0.0330524000
  172       -0.0177220900
  173       -0.0192544800
  174       -0.0021777700
  175       -0.0641533400
  176       -0.0000000000
  177        0.0788693000
  178       -0.0002204100
  179        0.0000000000
  180        0.0216949200
  181       -0.0021897800
  182       -0.0000000000
  183        0.0076235300
  184        0.0001350000
  185       -0.0000000000
  186       -0.0058638100
  187       -0.0077460900
  188       -0.0228250200
  189        0.0053512100
  190        0.0000000000
  191       -0.0183772300
  192       -0.0000000000
  193       -0.0093011500
  194       -0.0085012200
  195       -0.0107434900
  196        0.0000000000
  197       -0.0009456400
  198       -0.0000000000
  199       -0.0027748900
  200       -0.0035696900
  201       -0.0035326200
  202       -0.0000000000
  203        0.0002333100
  204        0.0000000000
  205       -0.0022141400
  206       -0.0000000000
  207        0.0026458300
  208        0.0002644500
  209       -0.0000000000
  210        0.0025661200
  211       -0.0033325100
  212       -0.0000000000
  213       -0.0014976700
  214        0.0000000000
  215       -0.0004041600
  216       -0.0000000000
  217       -0.0046082400
  218       -0.0000837500
  219       -0.0000000000
  220       -0.0020128600
  221        0.0001855200
  222       -0.0000000000
  223       -0.0017471900
  224       -0.0000000000
 Ene=         -0.23427700
 Spin= Alpha
 Occup=        0.00000000
    1       -0.0000000000
    2        0.0000000000
    3        0.0000000000
    4        0.0000000000
    5       -0.0000000000
    6       -0.0000000000
    7        0.4794626100
    8       -0.0000000000
    9        0.0000000000
   10        0.2464241300
   11       -0.0000000000
   12        0.0000000000
   13        0.0135994800
   14       -0.0000000000
   15       -0.0000000000
   16       -0.0394941100
   17        0.0000000000
   18       -0.0000000000
   19       -0.0000000000
   20       -0.0000000000
   21       -0.0000000000
   22        0.0000000000
   23       -0.0740163800
   24        0.0000000000
   25       -0.0000000000
   26       -0.0000000000
   27       -0.0000000000
   28       -0.0000000000
   29        0.0083169600
   30       -0.0000000000
   31       -0.0000000000
   32       -0.0000000000
   33       -0.0000000000
   34        0.0000000000
   35       -0.0011769000
   36        0.0000000000
   37       -0.1067789500
   38        0.0000000000
   39       -0.0000000000
   40       -0.0496680500
   41        0.0000000000
   42       -0.0000000000
   43       -0.0418198800
   44        0.0000000000
   45       -0.0000000000
   46        0.0000000000
   47       -0.0483314300
   48        0.0000000000
   49       -0.0000000000
   50       -0.0212842900
   51        0.0000000000
   52       -0.0000000000
   53       -0.0219965300
   54        0.0000000000
   55       -0.0000000000
   56       -0.0000000000
   57        0.0000000000
   58       -0.0000000000
   59       -0.0000000000
   60        0.0000000000
   61        0.0000000000
   62       -0.0000000000
   63       -1.0976739100
   64        0.0000000000
   65       -0.0000000000
   66        0.0598656300
   67        0.0000000000
   68       -0.0000000000
   69       -0.0084910800
   70        0.0000000000
   71       -0.0000000000
   72       -0.0043424200
   73       -0.0000000000
   74        0.0000000000
   75       -0.0000000000
   76        0.0000000000
   77        0.0000000000
   78        0.0000000000
   79       -0.2752910900
   80       -0.0000000000
   81        0.0000000000
   82        0.0000000000
   83        0.0000000000
   84        0.0000000000
   85       -0.0125417600
   86        0.0000000000
   87       -0.0000000000
   88        0.0000000000
   89        0.0000000000
   90       -0.0000000000
   91       -0.0001345100
   92       -0.0000000000
   93       -0.0172569600
   94       -0.0000000000
   95        0.0000000000
   96       -0.0097265100
   97        0.0000000000
   98       -0.0000000000
   99       -0.0471000800
  100       -0.0000000000
  101        0.0000000000
  102        0.0000000000
  103       -0.0065326300
  104       -0.0000000000
  105        0.0000000000
  106       -0.0048752700
  107       -0.0000000000
  108        0.0000000000
  109       -0.0010249600
  110       -0.0000000000
  111        0.0000000000
  112       -0.0000000000
  113       -0.2156161500
  114       -1.5421470200
  115       -0.1644353500
  116        0.0457864600
  117        0.0275340300
  118        0.0044142700
  119       -0.3902213800
  120       -0.0000000000
  121       -0.3354492600
  122        0.0749975900
  123       -0.0000000000
  124       -0.1209525400
  125       -0.0020926100
  126        0.0000000000
  127       -0.0151055700
  128       -0.0083857500
  129       -0.0000000000
  130        0.0087509400
  131       -0.0447689600
  132        0.0042758700
  133       -0.0759273400
  134       -0.0000000000
  135       -0.1132377900
  136        0.0000000000
  137        0.0157277500
  138        0.0020587100
  139        0.0072117800
  140       -0.0000000000
  141       -0.0090474200
  142        0.0000000000
  143        0.0014491200
  144        0.0037457000
  145        0.0025019900
  146        0.0000000000
  147        0.0011872100
  148       -0.0000000000
  149       -0.0392871600
  150       -0.0000000000
  151       -0.0122640300
  152       -0.0134523000
  153       -0.0000000000
  154       -0.0267211700
  155       -0.0266571300
  156       -0.0000000000
  157       -0.0008885700
  158        0.0000000000
  159       -0.0093410300
  160       -0.0000000000
  161        0.0070712500
  162       -0.0042402800
  163       -0.0000000000
  164        0.0041303700
  165       -0.0040884600
  166       -0.0000000000
  167        0.0023216100
  168       -0.0000000000
  169        0.2156161500
  170        1.5421470200
  171        0.1644353500
  172       -0.0457864600
  173       -0.0275340300
  174       -0.0044142700
  175       -0.3902213800
  176       -0.0000000000
  177        0.3354492600
  178        0.0749975900
  179       -0.0000000000
  180        0.1209525400
  181       -0.0020926100
  182        0.0000000000
  183        0.0151055700
  184       -0.0083857500
  185        0.0000000000
  186       -0.0087509400
  187        0.0447689600
  188       -0.0042758700
  189        0.0759273400
  190        0.0000000000
  191       -0.1132377900
  192       -0.0000000000
  193       -0.0157277500
  194       -0.0020587100
  195       -0.0072117800
  196        0.0000000000
  197       -0.0090474200
  198        0.0000000000
  199       -0.0014491200
  200       -0.0037457000
  201       -0.0025019900
  202       -0.0000000000
  203        0.0011872100
  204       -0.0000000000
  205       -0.0392871600
  206        0.0000000000
  207        0.0122640300
  208       -0.0134523000
  209        0.0000000000
  210        0.0267211700
  211       -0.0266571300
  212        0.0000000000
  213        0.0008885700
  214        0.0000000000
  215       -0.0093410300
  216        0.0000000000
  217       -0.0070712500
  218       -0.0042402800
  219        0.0000000000
  220       -0.0041303700
  221       -0.0040884600
  222        0.0000000000
  223       -0.0023216100
  224       -0.0000000000
 Ene=         -0.23046900
 Spin= Alpha
 Occup=        0.00000000
    1       -0.1760584900
    2       -0.5009154700
    3       -0.2427871000
    4        0.0573907100
    5        0.0679550200
    6        0.0080412400
    7        0.0000000000
    8        0.0000000000
    9       -0.2670369600
   10        0.0000000000
   11       -0.0000000000
   12       -0.1179067300
   13        0.0000000000
   14        0.0000000000
   15       -0.0173841300
   16       -0.0000000000
   17       -0.0000000000
   18        0.0240253100
   19        0.0015405500
   20        0.0025478100
   21        0.0538920200
   22        0.0000000000
   23       -0.0000000000
   24       -0.0000000000
   25        0.0289898100
   26        0.0271680500
   27        0.0254932100
   28       -0.0000000000
   29       -0.0000000000
   30       -0.0000000000
   31        0.0107999000
   32        0.0112800900
   33        0.0111094700
   34        0.0000000000
   35        0.0000000000
   36        0.0000000000
   37       -0.0000000000
   38        0.0000000000
   39        0.0348285200
   40       -0.0000000000
   41        0.0000000000
   42        0.0171084300
   43       -0.0000000000
   44        0.0000000000
   45        0.0168947400
   46       -0.0000000000
   47       -0.0000000000
   48       -0.0000000000
   49        0.0242704700
   50       -0.0000000000
   51       -0.0000000000
   52        0.0106854000
   53       -0.0000000000
   54       -0.0000000000
   55        0.0108968500
   56        0.0000000000
   57        0.0081016400
   58       -0.2103652300
   59       -0.0768381000
   60       -0.0603286400
   61       -0.0319034200
   62       -0.0055253300
   63        0.0000000000
   64       -0.0000000000
   65        0.0120564900
   66        0.0000000000
   67        0.0000000000
   68       -0.0037982500
   69       -0.0000000000
   70       -0.0000000000
   71       -0.0070544000
   72       -0.0000000000
   73        0.0000000000
   74       -0.0059077700
   75       -0.0132199500
   76       -0.0633578700
   77       -0.0523414500
   78        0.0000000000
   79       -0.0000000000
   80       -0.0000000000
   81       -0.0520827800
   82       -0.0338931300
   83       -0.0405108600
   84        0.0000000000
   85       -0.0000000000
   86        0.0000000000
   87       -0.0117100400
   88       -0.0118498600
   89       -0.0107781600
   90       -0.0000000000
   91       -0.0000000000
   92       -0.0000000000
   93        0.0000000000
   94       -0.0000000000
   95       -0.0347256100
   96       -0.0000000000
   97        0.0000000000
   98       -0.0203160700
   99       -0.0000000000
  100       -0.0000000000
  101       -0.0159794000
  102       -0.0000000000
  103       -0.0000000000
  104        0.0000000000
  105       -0.0109030300
  106       -0.0000000000
  107       -0.0000000000
  108       -0.0042455400
  109       -0.0000000000
  110        0.0000000000
  111       -0.0046736800
  112        0.0000000000
  113        0.1222599200
  114        0.7008476200
  115        0.0786082400
  116       -0.0485447500
  117       -0.0547612600
  118       -0.0057678000
  119        0.0906775700
  120        0.0000000000
  121        0.1628415400
  122        0.0060559700
  123       -0.0000000000
  124        0.0754708400
  125       -0.0011930300
  126        0.0000000000
  127        0.0007431500
  128        0.0027244100
  129       -0.0000000000
  130       -0.0099569800
  131       -0.0371279800
  132       -0.0578941700
  133       -0.0362953700
  134        0.0000000000
  135        0.0241207600
  136        0.0000000000
  137       -0.0252108500
  138       -0.0285433500
  139       -0.0330264800
  140       -0.0000000000
  141       -0.0003040200
  142       -0.0000000000
  143       -0.0093540800
  144       -0.0109818900
  145       -0.0101354100
  146        0.0000000000
  147        0.0000182800
  148        0.0000000000
  149       -0.0027270100
  150        0.0000000000
  151       -0.0355839800
  152       -0.0041145500
  153        0.0000000000
  154       -0.0103476700
  155       -0.0035583700
  156        0.0000000000
  157       -0.0164603700
  158        0.0000000000
  159        0.0025426300
  160       -0.0000000000
  161       -0.0133188500
  162        0.0006818900
  163       -0.0000000000
  164       -0.0067677700
  165        0.0007494500
  166       -0.0000000000
  167       -0.0058635700
  168        0.0000000000
  169        0.1222599200
  170        0.7008476200
  171        0.0786082400
  172       -0.0485447500
  173       -0.0547612600
  174       -0.0057678000
  175       -0.0906775700
  176       -0.0000000000
  177        0.1628415400
  178       -0.0060559700
  179       -0.0000000000
  180        0.0754708400
  181        0.0011930300
  182        0.0000000000
  183        0.0007431500
  184       -0.0027244100
  185       -0.0000000000
  186       -0.0099569800
  187       -0.0371279800
  188       -0.0578941700
  189       -0.0362953700
  190        0.0000000000
  191       -0.0241207600
  192        0.0000000000
  193       -0.0252108500
  194       -0.0285433500
  195       -0.0330264800
  196        0.0000000000
  197        0.0003040200
  198        0.0000000000
  199       -0.0093540800
  200       -0.0109818900
  201       -0.0101354100
  202       -0.0000000000
  203       -0.0000182800
  204       -0.0000000000
  205        0.0027270100
  206        0.0000000000
  207       -0.0355839800
  208        0.0041145500
  209        0.0000000000
  210       -0.0103476700
  211        0.0035583700
  212        0.0000000000
  213       -0.0164603700
  214       -0.0000000000
  215       -0.0025426300
  216        0.0000000000
  217       -0.0133188500
  218       -0.0006818900
  219       -0.0000000000
  220       -0.0067677700
  221       -0.0007494500
  222        0.0000000000
  223       -0.0058635700
  224        0.0000000000
 Ene=         -0.21471800
 Spin= Alpha
 Occup=        0.00000000
    1        0.0000000000
    2       -0.0000000000
    3        0.0000000000
    4        0.0000000000
    5       -0.0000000000
    6       -0.0000000000
    7       -0.0000000000
    8        0.8668116300
    9        0.0000000000
   10       -0.0000000000
   11        0.5322063400
   12       -0.0000000000
   13        0.0000000000
   14       -0.0060977000
   15        0.0000000000
   16        0.0000000000
   17       -0.0703303800
   18       -0.0000000000
   19        0.0000000000
   20       -0.0000000000
   21       -0.0000000000
   22       -0.0000000000
   23       -0.0000000000
   24       -0.1226230100
   25       -0.0000000000
   26       -0.0000000000
   27       -0.0000000000
   28        0.0000000000
   29        0.0000000000
   30        0.0258085900
   31       -0.0000000000
   32       -0.0000000000
   33       -0.0000000000
   34        0.0000000000
   35       -0.0000000000
   36       -0.0052225000
   37        0.0000000000
   38       -0.2854200100
   39        0.0000000000
   40        0.0000000000
   41       -0.1236958800
   42       -0.0000000000
   43        0.0000000000
   44       -0.1149922100
   45        0.0000000000
   46       -0.0000000000
   47        0.0000000000
   48       -0.1009869500
   49       -0.0000000000
   50        0.0000000000
   51       -0.0459134800
   52       -0.0000000000
   53        0.0000000000
   54       -0.0470900200
   55       -0.0000000000
   56        0.0000000000
   57       -0.0000000000
   58       -0.0000000000
   59       -0.0000000000
   60        0.0000000000
   61        0.0000000000
   62        0.0000000000
   63       -0.0000000000
   64        0.0102359100
   65        0.0000000000
   66       -0.0000000000
   67        0.1120590700
   68        0.0000000000
   69        0.0000000000
   70       -0.0234546900
   71       -0.0000000000
   72        0.0000000000
   73       -0.0171471600
   74       -0.0000000000
   75       -0.0000000000
   76        0.0000000000
   77        0.0000000000
   78       -0.0000000000
   79       -0.0000000000
   80        0.0127473900
   81        0.0000000000
   82        0.0000000000
   83        0.0000000000
   84        0.0000000000
   85        0.0000000000
   86       -0.0150900900
   87        0.0000000000
   88        0.0000000000
   89        0.0000000000
   90       -0.0000000000
   91       -0.0000000000
   92        0.0028968500
   93       -0.0000000000
   94       -0.1235948500
   95       -0.0000000000
   96        0.0000000000
   97       -0.0496266900
   98        0.0000000000
   99        0.0000000000
  100       -0.0566316500
  101       -0.0000000000
  102       -0.0000000000
  103       -0.0000000000
  104       -0.0343382100
  105       -0.0000000000
  106        0.0000000000
  107       -0.0136152300
  108       -0.0000000000
  109        0.0000000000
  110       -0.0157609000
  111       -0.0000000000
  112        0.0000000000
  113        0.0000000000
  114       -0.0000000000
  115       -0.0000000000
  116       -0.0000000000
  117       -0.0000000000
  118       -0.0000000000
  119       -0.0000000000
  120        0.2573166400
  121       -0.0000000000
  122       -0.0000000000
  123        0.1596752500
  124       -0.0000000000
  125        0.0000000000
  126       -0.0037838100
  127        0.0000000000
  128        0.0000000000
  129       -0.0204832700
  130       -0.0000000000
  131       -0.0000000000
  132       -0.0000000000
  133       -0.0000000000
  134        0.0454145800
  135       -0.0000000000
  136        0.0575584800
  137       -0.0000000000
  138       -0.0000000000
  139       -0.0000000000
  140       -0.0066979300
  141       -0.0000000000
  142       -0.0149834700
  143       -0.0000000000
  144       -0.0000000000
  145       -0.0000000000
  146        0.0004587500
  147        0.0000000000
  148        0.0031039000
  149        0.0000000000
  150       -0.0955955300
  151       -0.0000000000
  152        0.0000000000
  153       -0.0311002400
  154       -0.0000000000
  155        0.0000000000
  156       -0.0339239500
  157       -0.0000000000
  158        0.0023487600
  159        0.0000000000
  160       -0.0310099500
  161       -0.0000000000
  162        0.0000000000
  163       -0.0167229900
  164       -0.0000000000
  165        0.0000000000
  166       -0.0154193900
  167       -0.0000000000
  168        0.0002399100
  169        0.0000000000
  170        0.0000000000
  171        0.0000000000
  172        0.0000000000
  173        0.0000000000
  174        0.0000000000
  175       -0.0000000000
  176        0.2573166400
  177       -0.0000000000
  178       -0.0000000000
  179        0.1596752500
  180       -0.0000000000
  181        0.0000000000
  182       -0.0037838100
  183        0.0000000000
  184       -0.0000000000
  185       -0.0204832700
  186        0.0000000000
  187        0.0000000000
  188        0.0000000000
  189        0.0000000000
  190       -0.0454145800
  191        0.0000000000
  192        0.0575584800
  193        0.0000000000
  194        0.0000000000
  195        0.0000000000
  196        0.0066979300
  197        0.0000000000
  198       -0.0149834700
  199        0.0000000000
  200        0.0000000000
  201        0.0000000000
  202       -0.0004587500
  203       -0.0000000000
  204        0.0031039000
  205        0.0000000000
  206       -0.0955955300
  207        0.0000000000
  208        0.0000000000
  209       -0.0311002400
  210        0.0000000000
  211        0.0000000000
  212       -0.0339239500
  213        0.0000000000
  214       -0.0023487600
  215       -0.0000000000
  216       -0.0310099500
  217        0.0000000000
  218        0.0000000000
  219       -0.0167229900
  220        0.0000000000
  221        0.0000000000
  222       -0.0154193900
  223        0.0000000000
  224       -0.0002399100
 Ene=         -0.19102100
 Spin= Alpha
 Occup=        0.00000000
    1        0.4040892100
    2       -0.4499977500
    3       -0.0632952800
    4        0.0311636800
    5        0.0241084300
    6        0.0014009300
    7        0.0000000000
    8       -0.0000000000
    9        0.5912653800
   10        0.0000000000
   11        0.0000000000
   12        0.2050136700
   13       -0.0000000000
   14        0.0000000000
   15        0.0276139800
   16       -0.0000000000
   17       -0.0000000000
   18       -0.0392160600
   19        0.0734629200
   20        0.0583047200
   21       -0.0137706300
   22       -0.0000000000
   23       -0.0000000000
   24        0.0000000000
   25        0.0195088700
   26        0.0242865200
   27        0.0293476600
   28        0.0000000000
   29       -0.0000000000
   30       -0.0000000000
   31        0.0070989000
   32        0.0060494100
   33        0.0053891200
   34       -0.0000000000
   35        0.0000000000
   36        0.0000000000
   37       -0.0000000000
   38       -0.0000000000
   39       -0.0601208500
   40       -0.0000000000
   41       -0.0000000000
   42       -0.0289556700
   43       -0.0000000000
   44        0.0000000000
   45       -0.0294468700
   46        0.0000000000
   47       -0.0000000000
   48       -0.0000000000
   49       -0.0397172500
   50       -0.0000000000
   51       -0.0000000000
   52       -0.0175492400
   53       -0.0000000000
   54       -0.0000000000
   55       -0.0174918800
   56       -0.0000000000
   57       -0.3065736300
   58       -0.1904933700
   59       -0.0158944500
   60       -0.0051812000
   61       -0.0068098800
   62       -0.0015848900
   63        0.0000000000
   64        0.0000000000
   65       -0.1293378400
   66        0.0000000000
   67        0.0000000000
   68       -0.0383338500
   69       -0.0000000000
   70        0.0000000000
   71        0.0083946100
   72       -0.0000000000
   73       -0.0000000000
   74        0.0086576100
   75       -0.0598436400
   76        0.0170729600
   77        0.0005827400
   78        0.0000000000
   79       -0.0000000000
   80       -0.0000000000
   81       -0.0105909500
   82       -0.0102129900
   83        0.0022237000
   84        0.0000000000
   85       -0.0000000000
   86       -0.0000000000
   87       -0.0026261200
   88       -0.0016888800
   89       -0.0030550000
   90        0.0000000000
   91        0.0000000000
   92       -0.0000000000
   93        0.0000000000
   94        0.0000000000
   95        0.0493318400
   96       -0.0000000000
   97        0.0000000000
   98        0.0057876900
   99       -0.0000000000
  100        0.0000000000
  101        0.0222101200
  102        0.0000000000
  103       -0.0000000000
  104       -0.0000000000