[Molden Format]
[Atoms] Angs
E+       1       9     0.00000000     0.00000000     4.00000000
E+       2       1     0.00000000     0.00000000     0.00000000
E+       3       9    -1.13930000     0.00000000     0.00000000
E+       4       9     1.13930000     0.00000000     0.00000000
[GTO]
  1 0
s  1 1.00
   1.7064719900E-02   1.0000000000E+00
s  1 1.00
   4.3427005944E-02   1.0000000000E+00
s  1 1.00
   1.1051484327E-01   1.0000000000E+00
s  1 1.00
   2.8124275018E-01   1.0000000000E+00
s  1 1.00
   7.1571819843E-01   1.0000000000E+00
s  1 1.00
   1.8213893131E+00   1.0000000000E+00
p  1 1.00
   4.9631294600E-02   1.0000000000E+00
p  1 1.00
   1.2420746812E-01   1.0000000000E+00
p  1 1.00
   3.1084208586E-01   1.0000000000E+00
p  1 1.00
   7.7791459566E-01   1.0000000000E+00
d  1 1.00
   9.5064809100E-02   1.0000000000E+00
d  1 1.00
   2.3367772930E-01   1.0000000000E+00
d  1 1.00
   5.7440057670E-01   1.0000000000E+00
f  1 1.00
   1.5956751480E-01   1.0000000000E+00
f  1 1.00
   4.2730645850E-01   1.0000000000E+00
 
  2 0
s  1 1.00
   1.7064719900E-02   1.0000000000E+00
s  1 1.00
   4.3427005944E-02   1.0000000000E+00
s  1 1.00
   1.1051484327E-01   1.0000000000E+00
s  1 1.00
   2.8124275018E-01   1.0000000000E+00
s  1 1.00
   7.1571819843E-01   1.0000000000E+00
s  1 1.00
   1.8213893131E+00   1.0000000000E+00
p  1 1.00
   4.9631294600E-02   1.0000000000E+00
p  1 1.00
   1.2420746812E-01   1.0000000000E+00
p  1 1.00
   3.1084208586E-01   1.0000000000E+00
p  1 1.00
   7.7791459566E-01   1.0000000000E+00
d  1 1.00
   9.5064809100E-02   1.0000000000E+00
d  1 1.00
   2.3367772930E-01   1.0000000000E+00
d  1 1.00
   5.7440057670E-01   1.0000000000E+00
f  1 1.00
   1.5956751480E-01   1.0000000000E+00
f  1 1.00
   4.2730645850E-01   1.0000000000E+00
 
  3 0
s  1 1.00
   1.7064719900E-02   1.0000000000E+00
s  1 1.00
   4.3427005944E-02   1.0000000000E+00
s  1 1.00
   1.1051484327E-01   1.0000000000E+00
s  1 1.00
   2.8124275018E-01   1.0000000000E+00
s  1 1.00
   7.1571819843E-01   1.0000000000E+00
s  1 1.00
   1.8213893131E+00   1.0000000000E+00
p  1 1.00
   4.9631294600E-02   1.0000000000E+00
p  1 1.00
   1.2420746812E-01   1.0000000000E+00
p  1 1.00
   3.1084208586E-01   1.0000000000E+00
p  1 1.00
   7.7791459566E-01   1.0000000000E+00
d  1 1.00
   9.5064809100E-02   1.0000000000E+00
d  1 1.00
   2.3367772930E-01   1.0000000000E+00
d  1 1.00
   5.7440057670E-01   1.0000000000E+00
f  1 1.00
   1.5956751480E-01   1.0000000000E+00
f  1 1.00
   4.2730645850E-01   1.0000000000E+00
 
  4 0
s  1 1.00
   1.7064719900E-02   1.0000000000E+00
s  1 1.00
   4.3427005944E-02   1.0000000000E+00
s  1 1.00
   1.1051484327E-01   1.0000000000E+00
s  1 1.00
   2.8124275018E-01   1.0000000000E+00
s  1 1.00
   7.1571819843E-01   1.0000000000E+00
s  1 1.00
   1.8213893131E+00   1.0000000000E+00
p  1 1.00
   4.9631294600E-02   1.0000000000E+00
p  1 1.00
   1.2420746812E-01   1.0000000000E+00
p  1 1.00
   3.1084208586E-01   1.0000000000E+00
p  1 1.00
   7.7791459566E-01   1.0000000000E+00
d  1 1.00
   9.5064809100E-02   1.0000000000E+00
d  1 1.00
   2.3367772930E-01   1.0000000000E+00
d  1 1.00
   5.7440057670E-01   1.0000000000E+00
f  1 1.00
   1.5956751480E-01   1.0000000000E+00
f  1 1.00
   4.2730645850E-01   1.0000000000E+00
 
 
[MO]
Ene=    -3.29462E-01
Spin= Alpha
Occup=   1.0000000000
   1       0.03773911
   2       0.55213298
   3       0.27693246
   4      -0.06687383
   5      -0.08286659
   6      -0.01111970
   7       0.00000000
   8       0.00000000
   9      -0.18009791
  10       0.00000000
  11       0.00000000
  12      -0.04111302
  13      -0.00000000
  14       0.00000000
  15      -0.02429197
  16      -0.00000000
  17      -0.00000000
  18       0.01471852
  19      -0.01449793
  20      -0.01721794
  21       0.04232363
  22       0.00000000
  23       0.00000000
  24      -0.00000000
  25      -0.02124818
  26      -0.02165513
  27      -0.02143056
  28      -0.00000000
  29       0.00000000
  30      -0.00000000
  31      -0.01122209
  32      -0.01105738
  33      -0.01174505
  34      -0.00000000
  35      -0.00000000
  36      -0.00000000
  37      -0.00000000
  38      -0.00000000
  39      -0.02393232
  40      -0.00000000
  41      -0.00000000
  42      -0.00721358
  43      -0.00000000
  44      -0.00000000
  45      -0.00633293
  46      -0.00000000
  47      -0.00000000
  48      -0.00000000
  49       0.00776633
  50       0.00000000
  51      -0.00000000
  52       0.00329654
  53      -0.00000000
  54      -0.00000000
  55       0.00326686
  56       0.00000000
  57       0.01589373
  58      -0.31110582
  59       0.33621868
  60      -0.28293928
  61      -0.01205913
  62      -0.00345967
  63      -0.00000001
  64       0.00000000
  65      -0.00144168
  66       0.00000015
  67       0.00000000
  68      -0.09468245
  69      -0.00000000
  70       0.00000000
  71      -0.00661209
  72      -0.00000000
  73      -0.00000000
  74      -0.00272158
  75       0.12121917
  76      -0.01582807
  77      -0.01632512
  78       0.00000000
  79       0.00000000
  80      -0.00000000
  81      -0.12229129
  82      -0.03945951
  83      -0.04659299
  84       0.00000000
  85      -0.00000000
  86      -0.00000000
  87      -0.00265824
  88      -0.00506382
  89      -0.00469207
  90      -0.00000000
  91       0.00000000
  92      -0.00000000
  93       0.00000000
  94      -0.00000000
  95       0.01020690
  96      -0.00000001
  97       0.00000000
  98      -0.01231151
  99      -0.00000001
 100      -0.00000000
 101       0.00484927
 102       0.00000000
 103      -0.00000000
 104      -0.00000000
 105      -0.00162362
 106      -0.00000000
 107       0.00000000
 108      -0.00312241
 109      -0.00000000
 110      -0.00000000
 111      -0.00069208
 112       0.00000000
 113       0.00053854
 114       0.33625650
 115      -0.22581031
 116       0.13327747
 117      -0.02923546
 118      -0.00319336
 119       0.07056138
 120      -0.00000000
 121       0.07643454
 122       0.11330969
 123      -0.00000000
 124       0.07316637
 125       0.01305451
 126      -0.00000000
 127       0.01463333
 128      -0.00001046
 129       0.00000000
 130      -0.00889226
 131       0.00558658
 132      -0.02134434
 133       0.01125697
 134      -0.00000000
 135       0.01865877
 136       0.00000000
 137       0.03215469
 138       0.00796396
 139       0.00817036
 140      -0.00000000
 141       0.00786060
 142       0.00000000
 143      -0.00416508
 144      -0.00500612
 145      -0.00553548
 146      -0.00000000
 147       0.00025171
 148       0.00000000
 149      -0.04108390
 150       0.00000000
 151      -0.00256321
 152      -0.02160152
 153       0.00000000
 154      -0.00257786
 155      -0.01812905
 156       0.00000000
 157      -0.00424967
 158       0.00000000
 159       0.00198109
 160       0.00000000
 161      -0.00728814
 162       0.00032518
 163       0.00000000
 164      -0.00199205
 165       0.00037774
 166       0.00000000
 167      -0.00300943
 168      -0.00000000
 169       0.00053854
 170       0.33625650
 171      -0.22581051
 172       0.13327741
 173      -0.02923546
 174      -0.00319336
 175      -0.07056138
 176      -0.00000000
 177       0.07643454
 178      -0.11330961
 179      -0.00000000
 180       0.07316637
 181      -0.01305451
 182      -0.00000000
 183       0.01463333
 184       0.00001046
 185       0.00000000
 186      -0.00889226
 187       0.00558658
 188      -0.02134434
 189       0.01125698
 190       0.00000000
 191      -0.01865877
 192       0.00000000
 193       0.03215468
 194       0.00796395
 195       0.00817035
 196       0.00000000
 197      -0.00786060
 198       0.00000000
 199      -0.00416508
 200      -0.00500612
 201      -0.00553548
 202       0.00000000
 203      -0.00025171
 204      -0.00000000
 205       0.04108389
 206       0.00000000
 207      -0.00256321
 208       0.02160152
 209       0.00000000
 210      -0.00257786
 211       0.01812905
 212       0.00000000
 213      -0.00424967
 214      -0.00000000
 215      -0.00198109
 216       0.00000000
 217      -0.00728814
 218      -0.00032518
 219       0.00000000
 220      -0.00199205
 221      -0.00037774
 222       0.00000000
 223      -0.00300943
 224       0.00000000
Ene=    -2.47749E-01
Spin= Alpha
Occup=   0.0000000000
   1       0.16315854
   2       0.69209632
   3       0.28003255
   4      -0.06879903
   5      -0.08444725
   6      -0.00971518
   7      -0.00000000
   8      -0.00000000
   9       0.13201863
  10       0.00000000
  11      -0.00000000
  12       0.07330800
  13       0.00000000
  14      -0.00000000
  15       0.01685979
  16       0.00000000
  17       0.00000000
  18      -0.01761531
  19      -0.01116093
  20      -0.01769566
  21      -0.05880110
  22       0.00000000
  23      -0.00000000
  24       0.00000000
  25      -0.03550566
  26      -0.03324114
  27      -0.03718883
  28      -0.00000000
  29      -0.00000000
  30      -0.00000000
  31      -0.01431090
  32      -0.01481484
  33      -0.01334571
  34       0.00000000
  35       0.00000000
  36       0.00000000
  37       0.00000000
  38       0.00000000
  39      -0.00952908
  40       0.00000000
  41       0.00000000
  42      -0.00786646
  43       0.00000000
  44       0.00000000
  45      -0.00661433
  46       0.00000000
  47       0.00000000
  48       0.00000000
  49      -0.01545550
  50      -0.00000000
  51       0.00000000
  52      -0.00673800
  53      -0.00000000
  54       0.00000000
  55      -0.00706590
  56      -0.00000000
  57      -0.07655627
  58       0.14856157
  59      -1.15363599
  60       0.67544688
  61       0.02661414
  62       0.00623315
  63       0.00000001
  64       0.00000000
  65      -0.04528059
  66      -0.00000037
  67       0.00000000
  68      -0.17420229
  69       0.00000000
  70      -0.00000000
  71      -0.00851114
  72       0.00000000
  73       0.00000000
  74       0.00462087
  75      -0.32924619
  76       0.05950877
  77       0.03228587
  78      -0.00000000
  79      -0.00000000
  80       0.00000000
  81       0.27952042
  82       0.10443755
  83       0.10872746
  84       0.00000000
  85       0.00000000
  86      -0.00000000
  87       0.00708517
  88       0.01065940
  89       0.00985754
  90       0.00000000
  91      -0.00000000
  92       0.00000000
  93      -0.00000001
  94       0.00000000
  95       0.06229670
  96       0.00000002
  97       0.00000000
  98      -0.04537460
  99       0.00000002
 100       0.00000000
 101       0.02980817
 102      -0.00000000
 103       0.00000000
 104       0.00000000
 105       0.00949593
 106       0.00000000
 107       0.00000000
 108      -0.00106320
 109       0.00000000
 110       0.00000000
 111       0.00396782
 112       0.00000000
 113      -0.05412182
 114      -0.64449548
 115       0.74245638
 116      -0.29951477
 117       0.06493027
 118       0.00621330
 119      -0.09527744
 120      -0.00000000
 121      -0.11817902
 122      -0.22341105
 123       0.00000000
 124       0.14946842
 125      -0.02502453
 126      -0.00000000
 127      -0.00289788
 128      -0.00170982
 129      -0.00000000
 130       0.00509973
 131       0.00526952
 132       0.05354833
 133       0.04202819
 134      -0.00000000
 135      -0.01433077
 136      -0.00000000
 137      -0.07022593
 138      -0.01266918
 139      -0.00865209
 140       0.00000000
 141       0.01810394
 142       0.00000000
 143       0.01110783
 144       0.01314045
 145       0.01231806
 146       0.00000000
 147       0.00127433
 148       0.00000000
 149       0.09851625
 150      -0.00000000
 151      -0.03536485
 152       0.05184856
 153      -0.00000000
 154      -0.02366415
 155       0.05225255
 156      -0.00000000
 157      -0.01553490
 158      -0.00000000
 159      -0.00481347
 160      -0.00000000
 161       0.00247403
 162      -0.00072384
 163      -0.00000000
 164       0.00383116
 165      -0.00087346
 166      -0.00000000
 167       0.00097453
 168       0.00000000
 169      -0.05412182
 170      -0.64449550
 171       0.74245691
 172      -0.29951463
 173       0.06493026
 174       0.00621330
 175       0.09527744
 176       0.00000000
 177      -0.11817902
 178       0.22341085
 179      -0.00000000
 180       0.14946842
 181       0.02502453
 182      -0.00000000
 183      -0.00289788
 184       0.00170981
 185       0.00000000
 186       0.00509973
 187       0.00526952
 188       0.05354831
 189       0.04202817
 190      -0.00000000
 191       0.01433077
 192      -0.00000000
 193      -0.07022591
 194      -0.01266915
 195      -0.00865206
 196       0.00000000
 197      -0.01810394
 198      -0.00000000
 199       0.01110783
 200       0.01314045
 201       0.01231806
 202      -0.00000000
 203      -0.00127433
 204       0.00000000
 205      -0.09851624
 206       0.00000000
 207      -0.03536485
 208      -0.05184856
 209       0.00000000
 210      -0.02366415
 211      -0.05225254
 212       0.00000000
 213      -0.01553489
 214       0.00000000
 215       0.00481347
 216       0.00000000
 217       0.00247403
 218       0.00072384
 219       0.00000000
 220       0.00383116
 221       0.00087345
 222       0.00000000
 223       0.00097453
 224       0.00000000
Ene=    -2.42829E-01
Spin= Alpha
Occup=   0.0000000000
   1      -0.00000000
   2       0.00000000
   3       0.00000000
   4      -0.00000000
   5      -0.00000000
   6      -0.00000000
   7      -0.47068399
   8       0.00000000
   9       0.00000000
  10      -0.22646759
  11      -0.00000000
  12      -0.00000000
  13      -0.02114895
  14       0.00000000
  15      -0.00000000
  16       0.03953894
  17      -0.00000000
  18       0.00000000
  19      -0.00000000
  20      -0.00000000
  21      -0.00000000
  22       0.00000000
  23       0.08354483
  24      -0.00000000
  25      -0.00000000
  26      -0.00000000
  27      -0.00000000
  28      -0.00000000
  29      -0.00584656
  30       0.00000000
  31      -0.00000000
  32      -0.00000000
  33      -0.00000000
  34       0.00000000
  35       0.00051849
  36      -0.00000000
  37       0.08596847
  38       0.00000000
  39       0.00000000
  40       0.03955888
  41       0.00000000
  42       0.00000000
  43       0.02612775
  44       0.00000000
  45      -0.00000000
  46      -0.00000000
  47       0.04367954
  48      -0.00000000
  49       0.00000000
  50       0.01934924
  51      -0.00000000
  52      -0.00000000
  53       0.02056321
  54      -0.00000000
  55       0.00000000
  56       0.00000000
  57      -0.00000000
  58      -0.00000007
  59       0.00000188
  60      -0.00000042
  61       0.00000000
  62      -0.00000000
  63       1.22866970
  64      -0.00000000
  65      -0.00000000
  66       2.00976326
  67      -0.00000000
  68      -0.00000000
  69       0.02758050
  70      -0.00000000
  71      -0.00000000
  72      -0.00079662
  73       0.00000000
  74      -0.00000000
  75       0.00000056
  76       0.00000001
  77       0.00000001
  78       0.00000000
  79       0.46651836
  80      -0.00000000
  81      -0.00000014
  82      -0.00000006
  83      -0.00000006
  84      -0.00000000
  85       0.02673194
  86      -0.00000000
  87      -0.00000000
  88       0.00000000
  89       0.00000000
  90       0.00000000
  91       0.00230375
  92       0.00000000
  93      -0.20115728
  94       0.00000000
  95       0.00000000
  96      -0.23213357
  97      -0.00000000
  98      -0.00000000
  99      -0.13454366
 100       0.00000000
 101       0.00000000
 102       0.00000000
 103      -0.00604760
 104       0.00000000
 105      -0.00000000
 106      -0.00261327
 107      -0.00000000
 108      -0.00000000
 109      -0.00256011
 110       0.00000000
 111      -0.00000000
 112       0.00000000
 113       0.23527228
 114       2.50148353
 115       1.03532217
 116       0.61199917
 117      -0.02359177
 118      -0.00358989
 119       0.52822870
 120       0.00000000
 121       0.48971802
 122       0.65510724
 123       0.00000000
 124       0.19140465
 125       0.00939128
 126       0.00000000
 127       0.04595536
 128       0.01114546
 129      -0.00000000
 130       0.00226088
 131       0.12640238
 132       0.02707762
 133       0.15646768
 134       0.00000000
 135       0.16081271
 136       0.00000000
 137       0.18309828
 138       0.09317882
 139       0.13329696
 140       0.00000000
 141       0.01692989
 142       0.00000000
 143      -0.00013147
 144      -0.00024595
 145      -0.00418185
 146       0.00000000
 147       0.00062956
 148      -0.00000000
 149      -0.12731376
 150      -0.00000000
 151       0.13281737
 152      -0.07784574
 153      -0.00000000
 154       0.06693878
 155      -0.04412140
 156      -0.00000000
 157       0.05442342
 158       0.00000000
 159       0.01475899
 160      -0.00000000
 161       0.01667742
 162       0.00397498
 163      -0.00000000
 164       0.00983457
 165       0.00511965
 166      -0.00000000
 167       0.00822337
 168       0.00000000
 169      -0.23527228
 170      -2.50148345
 171      -1.03532479
 172      -0.61199872
 173       0.02359177
 174       0.00358989
 175       0.52822867
 176       0.00000000
 177      -0.48971802
 178       0.65510715
 179       0.00000000
 180      -0.19140464
 181       0.00939126
 182      -0.00000000
 183      -0.04595536
 184       0.01114546
 185      -0.00000000
 186      -0.00226088
 187      -0.12640234
 188      -0.02707767
 189      -0.15646772
 190      -0.00000000
 191       0.16081271
 192      -0.00000000
 193      -0.18309813
 194      -0.09317875
 195      -0.13329689
 196      -0.00000000
 197       0.01692989
 198      -0.00000000
 199       0.00013148
 200       0.00024596
 201       0.00418185
 202      -0.00000000
 203       0.00062956
 204       0.00000000
 205      -0.12731363
 206      -0.00000000
 207      -0.13281737
 208      -0.07784566
 209      -0.00000000
 210      -0.06693878
 211      -0.04412132
 212      -0.00000000
 213      -0.05442342
 214       0.00000000
 215       0.01475899
 216      -0.00000000
 217      -0.01667742
 218       0.00397499
 219      -0.00000000
 220      -0.00983457
 221       0.00511965
 222      -0.00000000
 223      -0.00822337
 224       0.00000000
Ene=    -2.33447E-01
Spin= Alpha
Occup=   0.0000000000
   1      -0.00000000
   2      -0.00000000
   3       0.00000000
   4       0.00000000
   5      -0.00000000
   6      -0.00000000
   7       0.00000000
   8      -0.72553973
   9       0.00000000
  10       0.00000000
  11      -0.40815251
  12       0.00000000
  13      -0.00000000
  14      -0.00557370
  15      -0.00000000
  16      -0.00000000
  17       0.05797185
  18      -0.00000000
  19       0.00000000
  20       0.00000000
  21      -0.00000000
  22       0.00000000
  23       0.00000000
  24       0.14266912
  25      -0.00000000
  26      -0.00000000
  27      -0.00000000
  28       0.00000000
  29       0.00000000
  30      -0.02573631
  31      -0.00000000
  32      -0.00000000
  33      -0.00000000
  34      -0.00000000
  35      -0.00000000
  36       0.00491762
  37      -0.00000000
  38       0.20654336
  39      -0.00000000
  40      -0.00000000
  41       0.09176406
  42      -0.00000000
  43      -0.00000000
  44       0.07267790
  45      -0.00000000
  46      -0.00000000
  47      -0.00000000
  48       0.07789660
  49      -0.00000000
  50      -0.00000000
  51       0.03481648
  52      -0.00000000
  53      -0.00000000
  54       0.03753138
  55      -0.00000000
  56      -0.00000000
  57       0.00000000
  58      -0.00000000
  59      -0.00000000
  60       0.00000000
  61      -0.00000000
  62      -0.00000000
  63       0.00000000
  64       0.15424720
  65      -0.00000000
  66       0.00000000
  67      -1.17080919
  68      -0.00000000
  69      -0.00000000
  70      -0.04863144
  71      -0.00000000
  72      -0.00000000
  73       0.02135420
  74       0.00000000
  75      -0.00000000
  76       0.00000000
  77       0.00000000
  78      -0.00000000
  79       0.00000000
  80       0.02744571
  81       0.00000000
  82       0.00000000
  83       0.00000000
  84      -0.00000000
  85       0.00000000
  86       0.01936348
  87      -0.00000000
  88      -0.00000000
  89      -0.00000000
  90      -0.00000000
  91       0.00000000
  92      -0.00362995
  93      -0.00000000
  94       0.39277599
  95       0.00000000
  96      -0.00000000
  97      -0.25216417
  98      -0.00000000
  99      -0.00000000
 100       0.17473154
 101       0.00000000
 102      -0.00000000
 103      -0.00000000
 104       0.05006239
 105       0.00000000
 106      -0.00000000
 107      -0.00917033
 108      -0.00000000
 109      -0.00000000
 110       0.02316664
 111       0.00000000
 112       0.00000000
 113      -0.00000000
 114       0.00000000
 115       0.00000000
 116      -0.00000000
 117       0.00000000
 118      -0.00000000
 119       0.00000000
 120      -0.39188953
 121       0.00000000
 122      -0.00000000
 123       0.94858904
 124       0.00000000
 125      -0.00000000
 126       0.00339716
 127       0.00000000
 128       0.00000000
 129       0.01144077
 130      -0.00000000
 131      -0.00000000
 132       0.00000000
 133       0.00000000
 134      -0.03812185
 135       0.00000000
 136      -0.09062874
 137      -0.00000000
 138      -0.00000000
 139      -0.00000000
 140       0.11246126
 141       0.00000000
 142       0.01359708
 143       0.00000000
 144       0.00000000
 145       0.00000000
 146       0.00686113
 147       0.00000000
 148      -0.00292426
 149       0.00000000
 150      -0.21377129
 151      -0.00000000
 152       0.00000000
 153      -0.13408526
 154      -0.00000000
 155       0.00000000
 156      -0.10622977
 157      -0.00000000
 158      -0.00983350
 159       0.00000000
 160      -0.00230161
 161      -0.00000000
 162       0.00000000
 163       0.01567089
 164       0.00000000
 165       0.00000000
 166       0.00064039
 167      -0.00000000
 168       0.00043402
 169      -0.00000000
 170      -0.00000000
 171       0.00000000
 172      -0.00000000
 173       0.00000000
 174      -0.00000000
 175       0.00000000
 176      -0.39188953
 177       0.00000000
 178       0.00000000
 179       0.94858904
 180       0.00000000
 181       0.00000000
 182       0.00339716
 183       0.00000000
 184       0.00000000
 185       0.01144077
 186      -0.00000000
 187      -0.00000000
 188       0.00000000
 189       0.00000000
 190       0.03812185
 191      -0.00000000
 192      -0.09062874
 193      -0.00000000
 194      -0.00000000
 195      -0.00000000
 196      -0.11246126
 197      -0.00000000
 198       0.01359708
 199       0.00000000
 200       0.00000000
 201       0.00000000
 202      -0.00686113
 203      -0.00000000
 204      -0.00292426
 205      -0.00000000
 206      -0.21377129
 207      -0.00000000
 208      -0.00000000
 209      -0.13408526
 210      -0.00000000
 211      -0.00000000
 212      -0.10622977
 213      -0.00000000
 214       0.00983350
 215       0.00000000
 216      -0.00230161
 217      -0.00000000
 218      -0.00000000
 219       0.01567089
 220      -0.00000000
 221      -0.00000000
 222       0.00064039
 223      -0.00000000
 224      -0.00043402
Ene=    -2.04804E-01
Spin= Alpha
Occup=   0.0000000000
   1       0.29563078
   2      -0.19647435
   3      -0.01256497
   4       0.01033605
   5       0.00018101
   6      -0.00014443
   7      -0.00000000
   8      -0.00000000
   9       0.51663070
  10      -0.00000000
  11       0.00000000
  12       0.16485075
  13       0.00000000
  14      -0.00000000
  15       0.03394444
  16       0.00000000
  17      -0.00000000
  18      -0.03508345
  19       0.03911621
  20       0.03240126
  21      -0.06600718
  22      -0.00000000
  23       0.00000000
  24       0.00000000
  25       0.00084356
  26       0.00371682
  27       0.00595764
  28      -0.00000000
  29       0.00000000
  30       0.00000000
  31       0.00045729
  32      -0.00019846
  33       0.00007819
  34       0.00000000
  35      -0.00000000
  36      -0.00000000
  37       0.00000000
  38      -0.00000000
  39      -0.02044128
  40       0.00000000
  41      -0.00000000
  42      -0.01580784
  43      -0.00000000
  44      -0.00000000
  45      -0.01496070
  46      -0.00000000
  47       0.00000000
  48      -0.00000000
  49      -0.03160754
  50       0.00000000
  51      -0.00000000
  52      -0.01352975
  53       0.00000000
  54      -0.00000000
  55      -0.01384269
  56      -0.00000000
  57       0.22762235
  58       0.88043208
  59      -0.04405707
  60      -0.15712444
  61      -0.01313502
  62      -0.00265764
  63      -0.00000001
  64      -0.00000000
  65       0.03805280
  66       0.00000006
  67      -0.00000000
  68      -0.09815518
  69      -0.00000000
  70      -0.00000000
  71      -0.00384437
  72       0.00000000
  73      -0.00000000
  74       0.00780081
  75      -0.09729661
  76      -0.02516819
  77      -0.04191823
  78       0.00000000
  79       0.00000000
  80       0.00000000
  81      -0.08180611
  82      -0.03289568
  83      -0.02282030
  84      -0.00000000
  85      -0.00000000
  86       0.00000000
  87      -0.00254259
  88      -0.00467594
  89      -0.00531989
  90      -0.00000000
  91       0.00000000
  92      -0.00000000
  93       0.00000000
  94       0.00000000
  95       0.05672790
  96      -0.00000000
  97      -0.00000000
  98      -0.04420631
  99      -0.00000000
 100       0.00000000
 101       0.02749689
 102       0.00000000
 103      -0.00000000
 104       0.00000000
 105       0.01178231
 106       0.00000000
 107      -0.00000000
 108       0.00189393
 109       0.00000000
 110       0.00000000
 111       0.00503362
 112       0.00000000
 113       0.11385367
 114      -0.26192842
 115       0.14129215
 116       0.06597122
 117      -0.03359488
 118      -0.00368172
 119      -0.14158814
 120       0.00000000
 121      -0.20533888
 122       0.04454693
 123       0.00000000
 124       0.09601696
 125       0.00084703
 126       0.00000000
 127      -0.01929364
 128       0.00551552
 129      -0.00000000
 130       0.01503356
 131      -0.00926225
 132       0.02378595
 133      -0.02028120
 134       0.00000000
 135      -0.03744481
 136       0.00000000
 137       0.00810359
 138      -0.00347052
 139      -0.00231342
 140       0.00000000
 141       0.01176052
 142       0.00000000
 143      -0.00624236
 144      -0.00617630
 145      -0.00578152
 146       0.00000000
 147       0.00124431
 148      -0.00000000
 149      -0.02046420
 150      -0.00000000
 151      -0.03684831
 152      -0.00871488
 153      -0.00000000
 154      -0.02616257
 155      -0.01285682
 156      -0.00000000
 157      -0.01420533
 158       0.00000000
 159       0.00584819
 160      -0.00000000
 161       0.01053354
 162       0.00264629
 163       0.00000000
 164       0.00658402
 165       0.00260536
 166      -0.00000000
 167       0.00457427
 168       0.00000000
 169       0.11385367
 170      -0.26192839
 171       0.14129207
 172       0.06597121
 173      -0.03359487
 174      -0.00368172
 175       0.14158813
 176      -0.00000000
 177      -0.20533888
 178      -0.04454690
 179       0.00000000
 180       0.09601696
 181      -0.00084703
 182       0.00000000
 183      -0.01929364
 184      -0.00551552
 185      -0.00000000
 186       0.01503356
 187      -0.00926225
 188       0.02378595
 189      -0.02028120
 190      -0.00000000
 191       0.03744481
 192      -0.00000000
 193       0.00810359
 194      -0.00347052
 195      -0.00231342
 196      -0.00000000
 197      -0.01176052
 198      -0.00000000
 199      -0.00624236
 200      -0.00617630
 201      -0.00578152
 202      -0.00000000
 203      -0.00124431
 204       0.00000000
 205       0.02046420
 206      -0.00000000
 207      -0.03684831
 208       0.00871488
 209      -0.00000000
 210      -0.02616257
 211       0.01285682
 212      -0.00000000
 213      -0.01420533
 214       0.00000000
 215      -0.00584819
 216      -0.00000000
 217       0.01053354
 218      -0.00264629
 219      -0.00000000
 220       0.00658402
 221      -0.00260536
 222      -0.00000000
 223       0.00457427
 224       0.00000000
Ene=    -1.84501E-01
Spin= Alpha
Occup=   0.0000000000
   1       0.00000000
   2      -0.00000000
   3      -0.00000000
   4       0.00000000
   5       0.00000000
   6       0.00000000
   7      -0.82445473
   8      -0.00000000
   9      -0.00000000
  10      -0.44195336
  11       0.00000000
  12       0.00000000
  13       0.00231730
  14       0.00000000
  15       0.00000000
  16       0.05918052
  17      -0.00000000
  18      -0.00000000
  19       0.00000000
  20       0.00000000
  21       0.00000000
  22      -0.00000000
  23       0.02889606
  24      -0.00000000
  25       0.00000000
  26       0.00000000
  27       0.00000000
  28       0.00000000
  29      -0.00519883
  30       0.00000000
  31       0.00000000
  32       0.00000000
  33       0.00000000
  34      -0.00000000
  35       0.00122660
  36      -0.00000000
  37       0.22520905
  38      -0.00000000
  39      -0.00000000
  40       0.10238617
  41      -0.00000000
  42      -0.00000000
  43       0.09679516
  44      -0.00000000
  45       0.00000000
  46      -0.00000000
  47       0.08331823
  48      -0.00000000
  49      -0.00000000
  50       0.03691540
  51      -0.00000000
  52       0.00000000
  53       0.03805343
  54      -0.00000000
  55      -0.00000000
  56      -0.00000000
  57       0.00000000
  58      -0.00000002
  59      -0.00000079
  60       0.00000014
  61      -0.00000000
  62       0.00000000
  63      -1.55084791
  64       0.00000000
  65       0.00000000
  66       2.97069453
  67       0.00000000
  68       0.00000000
  69       0.30355420
  70       0.00000000
  71       0.00000000
  72      -0.01144753
  73      -0.00000000
  74       0.00000000
  75      -0.00000023
  76      -0.00000000
  77      -0.00000000
  78      -0.00000000
  79       0.23946795
  80      -0.00000000