 Molden2AIM, Version 3.1.0 (02/25/2015)           Time: Wed Apr 23 15:35:18 2025
GAUSSIAN            190 MOL ORBITALS    252 PRIMITIVES        4 NUCLEI
  F    1    (CENTRE  1)   0.00000000  0.00000000  7.55890395  CHARGE =  9.0
  F    2    (CENTRE  2)  -2.15296482  0.00000000  0.00000000  CHARGE =  9.0
  H    3    (CENTRE  3)   0.00000000  0.00000000  0.00000000  CHARGE =  1.0
  F    4    (CENTRE  4)   2.15296482  0.00000000  0.00000000  CHARGE =  9.0
CENTRE ASSIGNMENTS    1  1  1  1  1  1  1  1  1  1  1  1  1  1  1  1  1  1  1  1
CENTRE ASSIGNMENTS    1  1  1  1  1  1  1  1  1  1  1  1  1  1  1  1  1  1  1  1
CENTRE ASSIGNMENTS    1  1  1  1  1  1  1  1  1  1  1  1  1  1  1  1  1  1  1  1
CENTRE ASSIGNMENTS    1  1  1  1  1  1  1  1  1  1  1  1  1  1  1  2  2  2  2  2
CENTRE ASSIGNMENTS    2  2  2  2  2  2  2  2  2  2  2  2  2  2  2  2  2  2  2  2
CENTRE ASSIGNMENTS    2  2  2  2  2  2  2  2  2  2  2  2  2  2  2  2  2  2  2  2
CENTRE ASSIGNMENTS    2  2  2  2  2  2  2  2  2  2  2  2  2  2  2  2  2  2  2  2
CENTRE ASSIGNMENTS    2  2  2  2  2  2  2  2  2  2  3  3  3  3  3  3  3  3  3  3
CENTRE ASSIGNMENTS    3  3  3  3  3  3  3  3  3  3  3  3  3  3  3  3  3  4  4  4
CENTRE ASSIGNMENTS    4  4  4  4  4  4  4  4  4  4  4  4  4  4  4  4  4  4  4  4
CENTRE ASSIGNMENTS    4  4  4  4  4  4  4  4  4  4  4  4  4  4  4  4  4  4  4  4
CENTRE ASSIGNMENTS    4  4  4  4  4  4  4  4  4  4  4  4  4  4  4  4  4  4  4  4
CENTRE ASSIGNMENTS    4  4  4  4  4  4  4  4  4  4  4  4
TYPE ASSIGNMENTS      1  1  1  1  1  1  1  1  1  1  1  1  1  1  1  1  1  1  1  2
TYPE ASSIGNMENTS      2  2  3  3  3  4  4  4  2  3  4  2  3  4  2  3  4  5  6  7
TYPE ASSIGNMENTS      8  9 10  5  6  7  8  9 10  5  6  7  8  9 10 11 12 13 17 14
TYPE ASSIGNMENTS     15 18 19 16 20 11 12 13 17 14 15 18 19 16 20  1  1  1  1  1
TYPE ASSIGNMENTS      1  1  1  1  1  1  1  1  1  1  1  1  1  1  2  2  2  3  3  3
TYPE ASSIGNMENTS      4  4  4  2  3  4  2  3  4  2  3  4  5  6  7  8  9 10  5  6
TYPE ASSIGNMENTS      7  8  9 10  5  6  7  8  9 10 11 12 13 17 14 15 18 19 16 20
TYPE ASSIGNMENTS     11 12 13 17 14 15 18 19 16 20  1  1  1  1  1  1  2  3  4  2
TYPE ASSIGNMENTS      3  4  2  3  4  5  6  7  8  9 10  5  6  7  8  9 10  1  1  1
TYPE ASSIGNMENTS      1  1  1  1  1  1  1  1  1  1  1  1  1  1  1  1  2  2  2  3
TYPE ASSIGNMENTS      3  3  4  4  4  2  3  4  2  3  4  2  3  4  5  6  7  8  9 10
TYPE ASSIGNMENTS      5  6  7  8  9 10  5  6  7  8  9 10 11 12 13 17 14 15 18 19
TYPE ASSIGNMENTS     16 20 11 12 13 17 14 15 18 19 16 20
EXPONENTS  0.1950000D+05 0.2923000D+04 0.6645000D+03 0.1875000D+03 0.6062000D+02
EXPONENTS  0.2142000D+02 0.7950000D+01 0.8815000D+00 0.1950000D+05 0.2923000D+04
EXPONENTS  0.6645000D+03 0.1875000D+03 0.6062000D+02 0.2142000D+02 0.7950000D+01
EXPONENTS  0.8815000D+00 0.2257000D+01 0.3041000D+00 0.9158000D-01 0.4388000D+02
EXPONENTS  0.9926000D+01 0.2930000D+01 0.4388000D+02 0.9926000D+01 0.2930000D+01
EXPONENTS  0.4388000D+02 0.9926000D+01 0.2930000D+01 0.9132000D+00 0.9132000D+00
EXPONENTS  0.9132000D+00 0.2672000D+00 0.2672000D+00 0.2672000D+00 0.7361000D-01
EXPONENTS  0.7361000D-01 0.7361000D-01 0.3107000D+01 0.3107000D+01 0.3107000D+01
EXPONENTS  0.3107000D+01 0.3107000D+01 0.3107000D+01 0.8550000D+00 0.8550000D+00
EXPONENTS  0.8550000D+00 0.8550000D+00 0.8550000D+00 0.8550000D+00 0.2920000D+00
EXPONENTS  0.2920000D+00 0.2920000D+00 0.2920000D+00 0.2920000D+00 0.2920000D+00
EXPONENTS  0.1917000D+01 0.1917000D+01 0.1917000D+01 0.1917000D+01 0.1917000D+01
EXPONENTS  0.1917000D+01 0.1917000D+01 0.1917000D+01 0.1917000D+01 0.1917000D+01
EXPONENTS  0.7240000D+00 0.7240000D+00 0.7240000D+00 0.7240000D+00 0.7240000D+00
EXPONENTS  0.7240000D+00 0.7240000D+00 0.7240000D+00 0.7240000D+00 0.7240000D+00
EXPONENTS  0.1950000D+05 0.2923000D+04 0.6645000D+03 0.1875000D+03 0.6062000D+02
EXPONENTS  0.2142000D+02 0.7950000D+01 0.8815000D+00 0.1950000D+05 0.2923000D+04
EXPONENTS  0.6645000D+03 0.1875000D+03 0.6062000D+02 0.2142000D+02 0.7950000D+01
EXPONENTS  0.8815000D+00 0.2257000D+01 0.3041000D+00 0.9158000D-01 0.4388000D+02
EXPONENTS  0.9926000D+01 0.2930000D+01 0.4388000D+02 0.9926000D+01 0.2930000D+01
EXPONENTS  0.4388000D+02 0.9926000D+01 0.2930000D+01 0.9132000D+00 0.9132000D+00
EXPONENTS  0.9132000D+00 0.2672000D+00 0.2672000D+00 0.2672000D+00 0.7361000D-01
EXPONENTS  0.7361000D-01 0.7361000D-01 0.3107000D+01 0.3107000D+01 0.3107000D+01
EXPONENTS  0.3107000D+01 0.3107000D+01 0.3107000D+01 0.8550000D+00 0.8550000D+00
EXPONENTS  0.8550000D+00 0.8550000D+00 0.8550000D+00 0.8550000D+00 0.2920000D+00
EXPONENTS  0.2920000D+00 0.2920000D+00 0.2920000D+00 0.2920000D+00 0.2920000D+00
EXPONENTS  0.1917000D+01 0.1917000D+01 0.1917000D+01 0.1917000D+01 0.1917000D+01
EXPONENTS  0.1917000D+01 0.1917000D+01 0.1917000D+01 0.1917000D+01 0.1917000D+01
EXPONENTS  0.7240000D+00 0.7240000D+00 0.7240000D+00 0.7240000D+00 0.7240000D+00
EXPONENTS  0.7240000D+00 0.7240000D+00 0.7240000D+00 0.7240000D+00 0.7240000D+00
EXPONENTS  0.3387000D+02 0.5095000D+01 0.1159000D+01 0.3258000D+00 0.1027000D+00
EXPONENTS  0.2526000D-01 0.1407000D+01 0.1407000D+01 0.1407000D+01 0.3880000D+00
EXPONENTS  0.3880000D+00 0.3880000D+00 0.1020000D+00 0.1020000D+00 0.1020000D+00
EXPONENTS  0.1057000D+01 0.1057000D+01 0.1057000D+01 0.1057000D+01 0.1057000D+01
EXPONENTS  0.1057000D+01 0.2470000D+00 0.2470000D+00 0.2470000D+00 0.2470000D+00
EXPONENTS  0.2470000D+00 0.2470000D+00 0.1950000D+05 0.2923000D+04 0.6645000D+03
EXPONENTS  0.1875000D+03 0.6062000D+02 0.2142000D+02 0.7950000D+01 0.8815000D+00
EXPONENTS  0.1950000D+05 0.2923000D+04 0.6645000D+03 0.1875000D+03 0.6062000D+02
EXPONENTS  0.2142000D+02 0.7950000D+01 0.8815000D+00 0.2257000D+01 0.3041000D+00
EXPONENTS  0.9158000D-01 0.4388000D+02 0.9926000D+01 0.2930000D+01 0.4388000D+02
EXPONENTS  0.9926000D+01 0.2930000D+01 0.4388000D+02 0.9926000D+01 0.2930000D+01
EXPONENTS  0.9132000D+00 0.9132000D+00 0.9132000D+00 0.2672000D+00 0.2672000D+00
EXPONENTS  0.2672000D+00 0.7361000D-01 0.7361000D-01 0.7361000D-01 0.3107000D+01
EXPONENTS  0.3107000D+01 0.3107000D+01 0.3107000D+01 0.3107000D+01 0.3107000D+01
EXPONENTS  0.8550000D+00 0.8550000D+00 0.8550000D+00 0.8550000D+00 0.8550000D+00
EXPONENTS  0.8550000D+00 0.2920000D+00 0.2920000D+00 0.2920000D+00 0.2920000D+00
EXPONENTS  0.2920000D+00 0.2920000D+00 0.1917000D+01 0.1917000D+01 0.1917000D+01
EXPONENTS  0.1917000D+01 0.1917000D+01 0.1917000D+01 0.1917000D+01 0.1917000D+01
EXPONENTS  0.1917000D+01 0.1917000D+01 0.7240000D+00 0.7240000D+00 0.7240000D+00
EXPONENTS  0.7240000D+00 0.7240000D+00 0.7240000D+00 0.7240000D+00 0.7240000D+00
EXPONENTS  0.7240000D+00 0.7240000D+00
MO    1     MO 0.0        OCC NO =    1.0000000  ORB. ENERGY =  -25.996600
 -0.00000000D+00 -0.00000000D+00 -0.00000000D+00 -0.00000000D+00 -0.00000000D+00
 -0.00000000D+00 -0.00000000D+00  0.00000000D+00  0.00000000D+00  0.00000000D+00
  0.00000000D+00  0.00000000D+00  0.00000000D+00  0.00000000D+00  0.00000000D+00
 -0.00000000D+00  0.00000000D+00 -0.00000000D+00  0.00000000D+00 -0.22126316D-04
 -0.21639054D-04 -0.14297838D-04  0.00000000D+00  0.00000000D+00  0.00000000D+00
  0.00000000D+00  0.00000000D+00  0.00000000D+00  0.15485957D-04 -0.00000000D+00
 -0.00000000D+00  0.76700600D-05 -0.00000000D+00  0.00000000D+00 -0.28413905D-05
  0.00000000D+00 -0.00000000D+00  0.00000000D+00  0.00000000D+00  0.00000000D+00
 -0.00000000D+00  0.94521830D-04  0.00000000D+00  0.00000000D+00  0.00000000D+00
  0.00000000D+00  0.00000000D+00 -0.38187101D-04  0.00000000D+00  0.00000000D+00
 -0.00000000D+00  0.00000000D+00  0.00000000D+00  0.10862391D-04  0.00000000D+00
 -0.50289961D-04  0.00000000D+00  0.00000000D+00 -0.50247437D-04  0.00000000D+00
  0.00000000D+00  0.52667285D-05  0.00000000D+00  0.00000000D+00 -0.00000000D+00
 -0.47549142D-05  0.00000000D+00  0.00000000D+00 -0.47909068D-05  0.00000000D+00
 -0.00000000D+00 -0.18240462D-04  0.00000000D+00 -0.00000000D+00 -0.00000000D+00
  0.41947337D+00  0.78191654D+00  0.13255408D+01  0.20072594D+01  0.25100849D+01
  0.21609493D+01  0.83074780D+00 -0.35997662D-02  0.17178169D-02  0.32257559D-02
  0.54929059D-02  0.86046046D-02  0.11531182D-01  0.12403341D-01  0.74469499D-02
 -0.48974276D-02  0.45907593D-01 -0.37697004D-02 -0.35869438D-03  0.36150893D-02
  0.35354784D-02  0.23360401D-02 -0.00000000D+00 -0.00000000D+00 -0.00000000D+00
  0.28265020D-03  0.27642572D-03  0.18264616D-03 -0.13349226D-02  0.00000000D+00
 -0.10314640D-03 -0.99924370D-04  0.00000000D+00 -0.73633672D-05 -0.32370210D-04
  0.00000000D+00 -0.11099950D-05  0.24047792D-01  0.24240470D-01  0.24226827D-01
 -0.00000000D+00 -0.12229798D-04  0.00000000D+00  0.75269119D-02  0.75002975D-02
  0.75025998D-02  0.00000000D+00  0.36409949D-05  0.00000000D+00  0.43951187D-03
  0.45296532D-03  0.45232577D-03  0.00000000D+00 -0.51848492D-05  0.00000000D+00
  0.26336025D-02 -0.00000000D+00  0.17983435D-03  0.23266129D-02 -0.00000000D+00
  0.19145270D-03  0.23273246D-02 -0.00000000D+00  0.17764533D-03  0.00000000D+00
  0.27933697D-03 -0.00000000D+00  0.19702998D-04  0.30429421D-03  0.00000000D+00
  0.13656472D-04  0.30440562D-03 -0.00000000D+00  0.20039042D-04  0.00000000D+00
  0.00000000D+00  0.00000000D+00  0.00000000D+00 -0.00000000D+00  0.00000000D+00
  0.00000000D+00  0.46787213D-04  0.00000000D+00 -0.00000000D+00 -0.49498587D-04
 -0.00000000D+00  0.00000000D+00 -0.82352167D-04 -0.00000000D+00 -0.00000000D+00
  0.00000000D+00  0.00000000D+00  0.00000000D+00  0.00000000D+00 -0.65023697D-05
  0.00000000D+00 -0.00000000D+00 -0.00000000D+00 -0.00000000D+00  0.00000000D+00
 -0.71423038D-05 -0.00000000D+00 -0.41947333D+00 -0.78191646D+00 -0.13255406D+01
 -0.20072592D+01 -0.25100846D+01 -0.21609491D+01 -0.83074771D+00  0.35997658D-02
 -0.17178169D-02 -0.32257559D-02 -0.54929059D-02 -0.86046046D-02 -0.11531182D-01
 -0.12403341D-01 -0.74469499D-02  0.48974276D-02 -0.45907593D-01  0.37697004D-02
  0.35869438D-03  0.36150893D-02  0.35354784D-02  0.23360401D-02 -0.00000000D+00
 -0.00000000D+00 -0.00000000D+00 -0.28265020D-03 -0.27642572D-03 -0.18264616D-03
 -0.13349226D-02  0.00000000D+00  0.10314640D-03 -0.99924370D-04 -0.00000000D+00
  0.73633672D-05 -0.32370210D-04 -0.00000000D+00  0.11099950D-05 -0.24047792D-01
 -0.24240470D-01 -0.24226827D-01  0.00000000D+00 -0.12229798D-04 -0.00000000D+00
 -0.75269119D-02 -0.75002975D-02 -0.75025998D-02 -0.00000000D+00  0.36409949D-05
 -0.00000000D+00 -0.43951187D-03 -0.45296532D-03 -0.45232577D-03  0.00000000D+00
 -0.51848492D-05  0.00000000D+00  0.26336025D-02 -0.00000000D+00 -0.17983435D-03
  0.23266129D-02  0.00000000D+00 -0.19145270D-03  0.23273246D-02 -0.00000000D+00
 -0.17764533D-03  0.00000000D+00  0.27933697D-03  0.00000000D+00 -0.19702998D-04
  0.30429421D-03 -0.00000000D+00 -0.13656472D-04  0.30440562D-03  0.00000000D+00
 -0.20039042D-04  0.00000000D+00
MO    2     MO 0.0        OCC NO =    1.0000000  ORB. ENERGY =  -25.996600
  0.21012256D-05  0.39167756D-05  0.66398976D-05  0.10054762D-04  0.12573515D-04
  0.10824625D-04  0.41613811D-05 -0.18031946D-07 -0.60561559D-06 -0.11372388D-05
 -0.19365216D-05 -0.30335496D-05 -0.40653133D-05 -0.43727926D-05 -0.26254189D-05
  0.17265859D-05 -0.13307507D-04  0.16110591D-04 -0.92901416D-06 -0.00000000D+00
 -0.00000000D+00 -0.00000000D+00  0.00000000D+00  0.00000000D+00  0.00000000D+00
 -0.88370349D-05 -0.86424271D-05 -0.57104170D-05  0.00000000D+00 -0.00000000D+00
  0.11095936D-04  0.00000000D+00 -0.00000000D+00 -0.47838611D-05 -0.00000000D+00
  0.00000000D+00  0.19521921D-05 -0.25012260D-04 -0.76592567D-05 -0.46553919D-04
 -0.00000000D+00  0.00000000D+00 -0.00000000D+00 -0.17993226D-04 -0.24900223D-04
 -0.10072703D-04  0.00000000D+00 -0.00000000D+00 -0.00000000D+00 -0.94500617D-06
  0.91255141D-06 -0.26631992D-05  0.00000000D+00  0.00000000D+00 -0.00000000D+00
 -0.00000000D+00  0.00000000D+00 -0.12667977D-04 -0.00000000D+00  0.00000000D+00
 -0.35870691D-04  0.00000000D+00  0.00000000D+00 -0.13237993D-04 -0.00000000D+00
 -0.00000000D+00  0.00000000D+00 -0.32743421D-06 -0.00000000D+00  0.00000000D+00
  0.56504050D-05 -0.00000000D+00  0.00000000D+00  0.27058278D-06  0.00000000D+00
 -0.41961169D+00 -0.78217436D+00 -0.13259778D+01 -0.20079212D+01 -0.25109126D+01
 -0.21616618D+01 -0.83102172D+00  0.36009532D-02 -0.16184537D-02 -0.30391693D-02
 -0.51751813D-02 -0.81068908D-02 -0.10864187D-01 -0.11685898D-01 -0.70161980D-02
  0.46141470D-02 -0.46311884D-01 -0.19885052D-02  0.53294090D-03 -0.40277316D-02
 -0.39390336D-02 -0.26026860D-02  0.00000000D+00  0.00000000D+00  0.00000000D+00
 -0.29634423D-03 -0.28981819D-03 -0.19149513D-03  0.21165244D-02 -0.00000000D+00
  0.11584565D-03 -0.33537440D-02  0.00000000D+00  0.30997886D-05  0.46156883D-04
 -0.00000000D+00  0.40224340D-06 -0.24516802D-01 -0.24292769D-01 -0.24279963D-01
  0.00000000D+00  0.76695344D-05  0.00000000D+00 -0.74865711D-02 -0.80037074D-02
 -0.80055843D-02  0.00000000D+00 -0.80188577D-06 -0.00000000D+00 -0.14888219D-02
 -0.91159686D-03 -0.91135250D-03  0.00000000D+00 -0.56213289D-07  0.00000000D+00
 -0.27401663D-02  0.00000000D+00 -0.20854419D-03 -0.35205945D-02  0.00000000D+00
 -0.20184381D-03 -0.35149007D-02  0.00000000D+00 -0.20554475D-03 -0.00000000D+00
 -0.83901458D-04  0.00000000D+00 -0.21454059D-04 -0.14049613D-03  0.00000000D+00
 -0.22824453D-04 -0.14232654D-03  0.00000000D+00 -0.22012705D-04 -0.00000000D+00
 -0.20576761D-03 -0.37111036D-03 -0.54720200D-03  0.10939034D-01 -0.13754223D-02
 -0.12070745D-04  0.00000000D+00 -0.00000000D+00  0.29050884D-05 -0.00000000D+00
  0.00000000D+00 -0.10039396D-06 -0.00000000D+00  0.00000000D+00  0.86273934D-07
 -0.17880067D-02 -0.62380467D-03 -0.62697847D-03  0.00000000D+00 -0.00000000D+00
 -0.00000000D+00  0.31000225D-02  0.60313687D-03  0.60406557D-03  0.00000000D+00
 -0.00000000D+00 -0.00000000D+00 -0.41961173D+00 -0.78217444D+00 -0.13259780D+01
 -0.20079214D+01 -0.25109128D+01 -0.21616620D+01 -0.83102181D+00  0.36009535D-02
 -0.16184537D-02 -0.30391693D-02 -0.51751813D-02 -0.81068908D-02 -0.10864187D-01
 -0.11685898D-01 -0.70161980D-02  0.46141470D-02 -0.46311884D-01 -0.19885052D-02
  0.53294090D-03  0.40277316D-02  0.39390336D-02  0.26026860D-02  0.00000000D+00
  0.00000000D+00  0.00000000D+00 -0.29634423D-03 -0.28981819D-03 -0.19149513D-03
 -0.21165244D-02 -0.00000000D+00  0.11584565D-03  0.33537440D-02 -0.00000000D+00
  0.30997886D-05 -0.46156883D-04 -0.00000000D+00  0.40224340D-06 -0.24516802D-01
 -0.24292769D-01 -0.24279963D-01  0.00000000D+00 -0.76695344D-05  0.00000000D+00
 -0.74865711D-02 -0.80037074D-02 -0.80055843D-02 -0.00000000D+00  0.80188577D-06
 -0.00000000D+00 -0.14888219D-02 -0.91159686D-03 -0.91135250D-03  0.00000000D+00
  0.56213289D-07  0.00000000D+00  0.27401663D-02  0.00000000D+00 -0.20854419D-03
  0.35205945D-02  0.00000000D+00 -0.20184381D-03  0.35149007D-02  0.00000000D+00
 -0.20554475D-03  0.00000000D+00  0.83901458D-04  0.00000000D+00 -0.21454059D-04
  0.14049613D-03 -0.00000000D+00 -0.22824453D-04  0.14232654D-03  0.00000000D+00
 -0.22012705D-04 -0.00000000D+00
MO    3     MO 0.0        OCC NO =    1.0000000  ORB. ENERGY =  -25.945200
  0.59317607D+00  0.11057059D+01  0.18744433D+01  0.28384596D+01  0.35495037D+01
  0.30557921D+01  0.11747580D+01 -0.50904189D-02  0.24833596D-02  0.46633095D-02
  0.79408118D-02  0.12439235D-01  0.16670038D-01  0.17930873D-01  0.10765673D-01
 -0.70799594D-02  0.64451802D-01 -0.48967501D-02 -0.16811241D-03 -0.00000000D+00
 -0.00000000D+00 -0.00000000D+00  0.00000000D+00  0.00000000D+00  0.00000000D+00
 -0.80855497D-03 -0.79074910D-03 -0.52248136D-03  0.00000000D+00  0.00000000D+00
  0.25486297D-03  0.00000000D+00  0.00000000D+00 -0.13560206D-04 -0.00000000D+00
 -0.00000000D+00  0.53581444D-05  0.34008416D-01  0.34010211D-01  0.33979814D-01
  0.00000000D+00 -0.00000000D+00 -0.00000000D+00  0.10162457D-01  0.10159929D-01
  0.10171441D-01  0.00000000D+00  0.00000000D+00 -0.00000000D+00  0.55467280D-03
  0.55528563D-03  0.55223106D-03  0.00000000D+00 -0.00000000D+00 -0.00000000D+00
  0.00000000D+00 -0.00000000D+00 -0.40206505D-03 -0.00000000D+00  0.00000000D+00
 -0.40553809D-03 -0.00000000D+00 -0.00000000D+00 -0.40126777D-03  0.00000000D+00
 -0.00000000D+00 -0.00000000D+00 -0.30323255D-04 -0.00000000D+00  0.00000000D+00
 -0.29175190D-04 -0.00000000D+00 -0.00000000D+00 -0.30321187D-04 -0.00000000D+00
  0.28158867D-05  0.52489348D-05  0.88982349D-05  0.13474550D-04  0.16849972D-04
  0.14506256D-04  0.55767346D-05 -0.24164904D-07 -0.11408108D-05 -0.21422406D-05
 -0.36478662D-05 -0.57143608D-05 -0.76579158D-05 -0.82371209D-05 -0.49455566D-05
  0.32524061D-05  0.17297135D-04 -0.34709569D-03  0.26029007D-04 -0.38248846D-04
 -0.37406536D-04 -0.24716080D-04 -0.00000000D+00 -0.00000000D+00 -0.00000000D+00
 -0.49244546D-05 -0.48160090D-05 -0.31821408D-05  0.34331234D-04  0.00000000D+00
 -0.63623487D-06 -0.16271974D-03 -0.00000000D+00  0.65582984D-05  0.53570513D-05
 -0.00000000D+00  0.57352476D-05  0.23217122D-04 -0.11369209D-04  0.50383548D-04
  0.00000000D+00  0.51821179D-04  0.00000000D+00  0.18881626D-04  0.35435895D-04
  0.10097729D-04 -0.00000000D+00 -0.23384723D-04  0.00000000D+00 -0.44526018D-04
 -0.18302574D-04 -0.11254164D-04 -0.00000000D+00  0.14774175D-04 -0.00000000D+00
 -0.58820156D-04 -0.00000000D+00 -0.19097453D-05 -0.69748566D-04 -0.00000000D+00
 -0.43414924D-04 -0.76154047D-04 -0.00000000D+00  0.28611147D-04  0.00000000D+00
 -0.14827075D-04 -0.00000000D+00 -0.51606479D-05 -0.50933228D-05 -0.00000000D+00
  0.11380393D-04 -0.33265765D-05 -0.00000000D+00 -0.12637807D-04  0.00000000D+00
 -0.27934332D-05 -0.50380719D-05 -0.74286340D-05  0.55235386D-03 -0.11383036D-03
  0.61437516D-05  0.00000000D+00  0.00000000D+00  0.40627552D-05 -0.00000000D+00
 -0.00000000D+00 -0.22069211D-04 -0.00000000D+00 -0.00000000D+00 -0.87769349D-05
  0.15415571D-05  0.13239255D-05 -0.12785856D-04 -0.00000000D+00  0.00000000D+00
  0.00000000D+00  0.16527632D-03  0.33278040D-04  0.35299250D-04 -0.00000000D+00
  0.00000000D+00  0.00000000D+00  0.28158867D-05  0.52489348D-05  0.88982349D-05
  0.13474550D-04  0.16849972D-04  0.14506256D-04  0.55767346D-05 -0.24164904D-07
 -0.11408108D-05 -0.21422406D-05 -0.36478662D-05 -0.57143608D-05 -0.76579158D-05
 -0.82371209D-05 -0.49455566D-05  0.32524061D-05  0.17297135D-04 -0.34709569D-03
  0.26029007D-04  0.38248846D-04  0.37406536D-04  0.24716080D-04 -0.00000000D+00
 -0.00000000D+00 -0.00000000D+00 -0.49244546D-05 -0.48160090D-05 -0.31821408D-05
 -0.34331234D-04  0.00000000D+00 -0.63623487D-06  0.16271974D-03  0.00000000D+00
  0.65582984D-05 -0.53570513D-05 -0.00000000D+00  0.57352476D-05  0.23217122D-04
 -0.11369209D-04  0.50383548D-04  0.00000000D+00 -0.51821179D-04 -0.00000000D+00
  0.18881626D-04  0.35435895D-04  0.10097729D-04 -0.00000000D+00  0.23384723D-04
 -0.00000000D+00 -0.44526018D-04 -0.18302574D-04 -0.11254164D-04 -0.00000000D+00
 -0.14774175D-04 -0.00000000D+00  0.58820156D-04 -0.00000000D+00 -0.19097453D-05
  0.69748566D-04 -0.00000000D+00 -0.43414924D-04  0.76154047D-04 -0.00000000D+00
  0.28611147D-04 -0.00000000D+00  0.14827075D-04 -0.00000000D+00 -0.51606479D-05
  0.50933228D-05 -0.00000000D+00  0.11380393D-04  0.33265765D-05 -0.00000000D+00
 -0.12637807D-04  0.00000000D+00
MO    4     MO 0.0        OCC NO =    1.0000000  ORB. ENERGY =   -1.302620
 -0.65577786D-04 -0.12223983D-03 -0.20722657D-03 -0.31380210D-03 -0.39241063D-03
 -0.33782900D-03 -0.12987380D-03  0.56276444D-06 -0.52881038D-04 -0.99301225D-04
 -0.16909286D-03 -0.26488296D-03 -0.35497433D-03 -0.38182276D-03 -0.22924588D-03
  0.15076174D-03 -0.89057934D-04  0.38359844D-03  0.45824246D-04  0.00000000D+00
  0.00000000D+00  0.00000000D+00  0.00000000D+00  0.00000000D+00  0.00000000D+00
 -0.51875419D-03 -0.50733026D-03 -0.33521456D-03 -0.00000000D+00 -0.00000000D+00
  0.68013508D-04 -0.00000000D+00 -0.00000000D+00  0.94710592D-04 -0.00000000D+00
 -0.00000000D+00  0.10228787D-04  0.53375445D-04  0.73002290D-04 -0.20201289D-03
  0.00000000D+00  0.00000000D+00  0.00000000D+00 -0.31503161D-03 -0.32830756D-03
 -0.13537463D-03 -0.00000000D+00 -0.00000000D+00 -0.00000000D+00 -0.37114879D-04
 -0.31534570D-04 -0.11178946D-03 -0.00000000D+00  0.00000000D+00  0.00000000D+00
  0.00000000D+00  0.00000000D+00 -0.46050326D-03  0.00000000D+00  0.00000000D+00
 -0.28411865D-03  0.00000000D+00  0.00000000D+00 -0.25508047D-03 -0.00000000D+00
  0.00000000D+00  0.00000000D+00 -0.11145576D-03  0.00000000D+00  0.00000000D+00
 -0.16933707D-03 -0.00000000D+00  0.00000000D+00 -0.17893480D-03  0.00000000D+00
 -0.35947084D-02 -0.67006922D-02 -0.11359321D-01 -0.17201359D-01 -0.21510360D-01
 -0.18518416D-01 -0.71191553D-02  0.30848465D-04 -0.88637484D-01 -0.16644550D+00
 -0.28342798D+00 -0.44398825D+00 -0.59499648D+00 -0.63999894D+00 -0.38425452D+00
  0.25270194D+00  0.14103315D+00  0.99015395D-01  0.15717698D-02  0.12281860D+00
  0.12011390D+00  0.79364335D-01 -0.00000000D+00 -0.00000000D+00 -0.00000000D+00
  0.34422612D-02  0.33664563D-02  0.22243600D-02  0.29498610D-01  0.00000000D+00
  0.90137940D-03  0.16048657D-01 -0.00000000D+00  0.36557790D-03 -0.11528810D-03
  0.00000000D+00  0.11406005D-05  0.22434920D-01  0.35801041D-02  0.36537048D-02
  0.00000000D+00  0.23236616D-03 -0.00000000D+00  0.35839429D-02 -0.42209131D-02
 -0.40830860D-02 -0.00000000D+00  0.17203701D-03 -0.00000000D+00  0.32749084D-02
  0.69091979D-03  0.74642124D-03 -0.00000000D+00  0.73110342D-04  0.00000000D+00
  0.91380678D-02  0.00000000D+00  0.12585222D-03  0.38347477D-03  0.00000000D+00
  0.21123852D-03  0.37037912D-03 -0.00000000D+00  0.19444192D-03 -0.00000000D+00
  0.75109137D-03 -0.00000000D+00  0.76939922D-04 -0.13705813D-03 -0.00000000D+00
  0.66260947D-04 -0.78532671D-04 -0.00000000D+00  0.26548945D-04  0.00000000D+00
  0.16005559D-01  0.28866684D-01  0.42563909D-01 -0.30071185D-01  0.40811385D-02
 -0.14733669D-03 -0.00000000D+00 -0.00000000D+00  0.12437273D-03  0.00000000D+00
 -0.00000000D+00  0.10932902D-03 -0.00000000D+00 -0.00000000D+00  0.42057310D-04
  0.14131599D-01  0.64428018D-03  0.67157481D-03 -0.00000000D+00  0.00000000D+00
 -0.00000000D+00 -0.11212664D-01 -0.24462016D-02 -0.24051691D-02 -0.00000000D+00
  0.00000000D+00  0.00000000D+00 -0.35947084D-02 -0.67006922D-02 -0.11359321D-01
 -0.17201359D-01 -0.21510360D-01 -0.18518416D-01 -0.71191553D-02  0.30848465D-04
 -0.88637484D-01 -0.16644550D+00 -0.28342798D+00 -0.44398825D+00 -0.59499648D+00
 -0.63999894D+00 -0.38425452D+00  0.25270194D+00  0.14103315D+00  0.99015395D-01
  0.15717698D-02 -0.12281860D+00 -0.12011390D+00 -0.79364335D-01 -0.00000000D+00
 -0.00000000D+00 -0.00000000D+00  0.34422612D-02  0.33664563D-02  0.22243600D-02
 -0.29498610D-01  0.00000000D+00  0.90137940D-03 -0.16048657D-01  0.00000000D+00
  0.36557790D-03  0.11528810D-03  0.00000000D+00  0.11406005D-05  0.22434920D-01
  0.35801041D-02  0.36537048D-02  0.00000000D+00 -0.23236616D-03 -0.00000000D+00
  0.35839429D-02 -0.42209131D-02 -0.40830860D-02 -0.00000000D+00 -0.17203701D-03
  0.00000000D+00  0.32749084D-02  0.69091979D-03  0.74642124D-03 -0.00000000D+00
 -0.73110342D-04 -0.00000000D+00 -0.91380678D-02 -0.00000000D+00  0.12585222D-03
 -0.38347477D-03 -0.00000000D+00  0.21123852D-03 -0.37037912D-03  0.00000000D+00
  0.19444192D-03 -0.00000000D+00 -0.75109137D-03 -0.00000000D+00  0.76939922D-04
  0.13705813D-03 -0.00000000D+00  0.66260947D-04  0.78532671D-04 -0.00000000D+00
  0.26548945D-04 -0.00000000D+00
MO    5     MO 0.0        OCC NO =    1.0000000  ORB. ENERGY =   -1.254970
 -0.00000000D+00 -0.00000000D+00 -0.00000000D+00 -0.00000000D+00 -0.00000000D+00
 -0.00000000D+00 -0.00000000D+00  0.00000000D+00  0.00000000D+00  0.00000000D+00
  0.00000000D+00  0.00000000D+00  0.00000000D+00  0.00000000D+00  0.00000000D+00
 -0.00000000D+00 -0.00000000D+00  0.00000000D+00  0.00000000D+00  0.45939090D-04
  0.44927427D-04  0.29685450D-04  0.00000000D+00  0.00000000D+00  0.00000000D+00
 -0.00000000D+00 -0.00000000D+00 -0.00000000D+00  0.35730951D-04  0.00000000D+00
  0.00000000D+00  0.20909882D-04  0.00000000D+00  0.00000000D+00 -0.14622313D-04
  0.00000000D+00  0.00000000D+00  0.00000000D+00  0.00000000D+00 -0.00000000D+00
  0.00000000D+00  0.15339069D-03  0.00000000D+00 -0.00000000D+00 -0.00000000D+00
 -0.00000000D+00  0.00000000D+00 -0.10719262D-03 -0.00000000D+00 -0.00000000D+00
 -0.00000000D+00 -0.00000000D+00 -0.00000000D+00  0.44236552D-04  0.00000000D+00
 -0.75180308D-04 -0.00000000D+00 -0.00000000D+00 -0.76438735D-04 -0.00000000D+00
 -0.00000000D+00  0.50959157D-04 -0.00000000D+00 -0.00000000D+00  0.00000000D+00
 -0.33953504D-05  0.00000000D+00 -0.00000000D+00 -0.29923272D-05 -0.00000000D+00
 -0.00000000D+00 -0.44359659D-04 -0.00000000D+00 -0.00000000D+00 -0.00000000D+00
  0.33637324D-02  0.62701429D-02  0.10629434D-01  0.16096095D-01  0.20128224D-01
  0.17328526D-01  0.66617179D-02 -0.28866314D-04  0.92853862D-01  0.17436311D+00
  0.29691030D+00  0.46510823D+00  0.62329975D+00  0.67044292D+00  0.40253305D+00
 -0.26472267D+00 -0.14650172D+00 -0.80012117D-01 -0.42272244D-02 -0.35722803D-01
 -0.34936121D-01 -0.23083772D-01  0.00000000D+00  0.00000000D+00  0.00000000D+00
 -0.35343418D-02 -0.34565090D-02 -0.22838617D-02 -0.11433930D-01 -0.00000000D+00
 -0.95104389D-03  0.78628658D-03  0.00000000D+00 -0.41425992D-03 -0.24159307D-03
  0.00000000D+00 -0.12681051D-04 -0.14740120D-01 -0.42476562D-02 -0.43382508D-02
 -0.00000000D+00 -0.13286950D-03  0.00000000D+00  0.72171857D-03  0.50443597D-02
  0.49153791D-02 -0.00000000D+00 -0.10268472D-03  0.00000000D+00  0.16088644D-02
  0.72946840D-03  0.65376100D-03  0.00000000D+00 -0.80487510D-04 -0.00000000D+00
 -0.63828782D-02  0.00000000D+00 -0.91540460D-04  0.15674923D-02  0.00000000D+00
 -0.86402816D-04  0.16882000D-02  0.00000000D+00 -0.15515497D-03  0.00000000D+00
  0.37128904D-03 -0.00000000D+00 -0.57856202D-04  0.49263573D-03  0.00000000D+00
 -0.50583062D-04  0.40014418D-03 -0.00000000D+00 -0.78787338D-05 -0.00000000D+00
  0.00000000D+00  0.00000000D+00  0.00000000D+00 -0.00000000D+00  0.00000000D+00
 -0.00000000D+00  0.27104256D-01  0.00000000D+00  0.00000000D+00  0.12102095D-01
 -0.00000000D+00  0.00000000D+00 -0.80663828D-03 -0.00000000D+00  0.00000000D+00
  0.00000000D+00  0.00000000D+00  0.00000000D+00  0.00000000D+00  0.72908213D-04
  0.00000000D+00 -0.00000000D+00 -0.00000000D+00 -0.00000000D+00  0.00000000D+00
  0.22591391D-04  0.00000000D+00 -0.33637324D-02 -0.62701429D-02 -0.10629434D-01
 -0.16096095D-01 -0.20128224D-01 -0.17328526D-01 -0.66617179D-02  0.28866314D-04
 -0.92853862D-01 -0.17436311D+00 -0.29691030D+00 -0.46510823D+00 -0.62329975D+00
 -0.67044292D+00 -0.40253305D+00  0.26472267D+00  0.14650172D+00  0.80012117D-01
  0.42272244D-02 -0.35722803D-01 -0.34936121D-01 -0.23083772D-01 -0.00000000D+00
 -0.00000000D+00 -0.00000000D+00  0.35343418D-02  0.34565090D-02  0.22838617D-02
 -0.11433930D-01  0.00000000D+00  0.95104389D-03  0.78628658D-03  0.00000000D+00
  0.41425992D-03 -0.24159307D-03 -0.00000000D+00  0.12681051D-04  0.14740120D-01
  0.42476562D-02  0.43382508D-02 -0.00000000D+00 -0.13286950D-03 -0.00000000D+00
 -0.72171857D-03 -0.50443597D-02 -0.49153791D-02 -0.00000000D+00 -0.10268472D-03
  0.00000000D+00 -0.16088644D-02 -0.72946840D-03 -0.65376100D-03  0.00000000D+00
 -0.80487510D-04 -0.00000000D+00 -0.63828782D-02 -0.00000000D+00  0.91540460D-04
  0.15674923D-02 -0.00000000D+00  0.86402816D-04  0.16882000D-02 -0.00000000D+00
  0.15515497D-03 -0.00000000D+00  0.37128904D-03 -0.00000000D+00  0.57856202D-04
  0.49263573D-03 -0.00000000D+00  0.50583062D-04  0.40014418D-03 -0.00000000D+00
  0.78787338D-05 -0.00000000D+00
MO    6     MO 0.0        OCC NO =    1.0000000  ORB. ENERGY =   -1.200140
 -0.58055215D-02 -0.10821744D-01 -0.18345516D-01 -0.27780518D-01 -0.34739635D-01
 -0.29907590D-01 -0.11497569D-01  0.49820850D-04 -0.12926543D+00 -0.24273758D+00
 -0.41334023D+00 -0.64749503D+00 -0.86771951D+00 -0.93334933D+00 -0.56038171D+00
  0.36853059D+00  0.20702603D+00  0.11643399D+00  0.40604634D-02  0.00000000D+00
  0.00000000D+00  0.00000000D+00 -0.00000000D+00 -0.00000000D+00 -0.00000000D+00
 -0.12787257D-01 -0.12505658D-01 -0.82630170D-02  0.00000000D+00  0.00000000D+00
 -0.32754898D-02  0.00000000D+00  0.00000000D+00 -0.12578515D-02  0.00000000D+00
 -0.00000000D+00 -0.47307321D-04  0.17576199D-01  0.17588406D-01  0.17797599D-01
 -0.00000000D+00 -0.00000000D+00  0.00000000D+00 -0.32276570D-02 -0.32351270D-02
 -0.28916541D-02 -0.00000000D+00 -0.00000000D+00  0.00000000D+00 -0.41145378D-03
 -0.40065016D-03 -0.25452548D-03  0.00000000D+00 -0.00000000D+00 -0.00000000D+00
  0.00000000D+00 -0.00000000D+00 -0.74817457D-03  0.00000000D+00 -0.00000000D+00
 -0.84424234D-03  0.00000000D+00 -0.00000000D+00 -0.78844349D-03 -0.00000000D+00
  0.00000000D+00 -0.00000000D+00 -0.33773415D-03  0.00000000D+00 -0.00000000D+00
 -0.25164198D-03  0.00000000D+00 -0.00000000D+00 -0.27998951D-03  0.00000000D+00
 -0.17597765D-04 -0.32802996D-04 -0.55609142D-04 -0.84208631D-04 -0.10530319D-03
 -0.90656236D-04 -0.34851567D-04  0.15101754D-06  0.11212104D-03  0.21054346D-03
  0.35851920D-03  0.56161820D-03  0.75263446D-03  0.80955984D-03  0.48605866D-03
 -0.31965263D-03 -0.23254016D-03  0.10129243D-02 -0.17077368D-03 -0.12614699D-04
 -0.12336900D-04 -0.81515113D-05  0.00000000D+00  0.00000000D+00  0.00000000D+00
  0.34369995D-03  0.33613104D-03  0.22209599D-03 -0.73281533D-04  0.00000000D+00
  0.25869310D-04  0.47478794D-03  0.00000000D+00 -0.85068934D-04 -0.32154332D-04
  0.00000000D+00 -0.38003803D-04 -0.20584252D-04  0.59359239D-04 -0.90235618D-04
  0.00000000D+00 -0.13411321D-03 -0.00000000D+00 -0.88777428D-04 -0.12706621D-03
 -0.15565767D-04  0.00000000D+00  0.10513373D-03 -0.00000000D+00  0.13571625D-03
  0.55213179D-04  0.77986873D-05  0.00000000D+00 -0.80795029D-04 -0.00000000D+00
  0.83519529D-04  0.00000000D+00  0.15481669D-03  0.94089393D-04 -0.00000000D+00
  0.24867499D-03  0.16696953D-03 -0.00000000D+00  0.57506981D-04  0.00000000D+00
  0.55371973D-04 -0.00000000D+00  0.75445113D-04  0.25753114D-04  0.00000000D+00
  0.23492952D-04  0.14006638D-05 -0.00000000D+00  0.10699161D-03 -0.00000000D+00
 -0.17898381D-04 -0.32280468D-04 -0.47597531D-04 -0.17915672D-02  0.65900016D-03