 Molden2AIM, Version 3.1.0 (02/25/2015)           Time: Wed Apr 23 15:35:19 2025
GAUSSIAN            224 MOL ORBITALS    224 PRIMITIVES        4 NUCLEI
  F    1    (CENTRE  1)   0.00000000  0.00000000  7.55890395  CHARGE =  9.0
  H    2    (CENTRE  2)   0.00000000  0.00000000  0.00000000  CHARGE =  1.0
  F    3    (CENTRE  3)  -2.15296482  0.00000000  0.00000000  CHARGE =  9.0
  F    4    (CENTRE  4)   2.15296482  0.00000000  0.00000000  CHARGE =  9.0
CENTRE ASSIGNMENTS    1  1  1  1  1  1  1  1  1  1  1  1  1  1  1  1  1  1  1  1
CENTRE ASSIGNMENTS    1  1  1  1  1  1  1  1  1  1  1  1  1  1  1  1  1  1  1  1
CENTRE ASSIGNMENTS    1  1  1  1  1  1  1  1  1  1  1  1  1  1  1  1  2  2  2  2
CENTRE ASSIGNMENTS    2  2  2  2  2  2  2  2  2  2  2  2  2  2  2  2  2  2  2  2
CENTRE ASSIGNMENTS    2  2  2  2  2  2  2  2  2  2  2  2  2  2  2  2  2  2  2  2
CENTRE ASSIGNMENTS    2  2  2  2  2  2  2  2  2  2  2  2  3  3  3  3  3  3  3  3
CENTRE ASSIGNMENTS    3  3  3  3  3  3  3  3  3  3  3  3  3  3  3  3  3  3  3  3
CENTRE ASSIGNMENTS    3  3  3  3  3  3  3  3  3  3  3  3  3  3  3  3  3  3  3  3
CENTRE ASSIGNMENTS    3  3  3  3  3  3  3  3  4  4  4  4  4  4  4  4  4  4  4  4
CENTRE ASSIGNMENTS    4  4  4  4  4  4  4  4  4  4  4  4  4  4  4  4  4  4  4  4
CENTRE ASSIGNMENTS    4  4  4  4  4  4  4  4  4  4  4  4  4  4  4  4  4  4  4  4
CENTRE ASSIGNMENTS    4  4  4  4
TYPE ASSIGNMENTS      1  1  1  1  1  1  2  3  4  2  3  4  2  3  4  2  3  4  5  6
TYPE ASSIGNMENTS      7  8  9 10  5  6  7  8  9 10  5  6  7  8  9 10 11 12 13 17
TYPE ASSIGNMENTS     14 15 18 19 16 20 11 12 13 17 14 15 18 19 16 20  1  1  1  1
TYPE ASSIGNMENTS      1  1  2  3  4  2  3  4  2  3  4  2  3  4  5  6  7  8  9 10
TYPE ASSIGNMENTS      5  6  7  8  9 10  5  6  7  8  9 10 11 12 13 17 14 15 18 19
TYPE ASSIGNMENTS     16 20 11 12 13 17 14 15 18 19 16 20  1  1  1  1  1  1  2  3
TYPE ASSIGNMENTS      4  2  3  4  2  3  4  2  3  4  5  6  7  8  9 10  5  6  7  8
TYPE ASSIGNMENTS      9 10  5  6  7  8  9 10 11 12 13 17 14 15 18 19 16 20 11 12
TYPE ASSIGNMENTS     13 17 14 15 18 19 16 20  1  1  1  1  1  1  2  3  4  2  3  4
TYPE ASSIGNMENTS      2  3  4  2  3  4  5  6  7  8  9 10  5  6  7  8  9 10  5  6
TYPE ASSIGNMENTS      7  8  9 10 11 12 13 17 14 15 18 19 16 20 11 12 13 17 14 15
TYPE ASSIGNMENTS     18 19 16 20
EXPONENTS  0.1706472D-01 0.4342701D-01 0.1105148D+00 0.2812428D+00 0.7157182D+00
EXPONENTS  0.1821389D+01 0.4963129D-01 0.4963129D-01 0.4963129D-01 0.1242075D+00
EXPONENTS  0.1242075D+00 0.1242075D+00 0.3108421D+00 0.3108421D+00 0.3108421D+00
EXPONENTS  0.7779146D+00 0.7779146D+00 0.7779146D+00 0.9506481D-01 0.9506481D-01
EXPONENTS  0.9506481D-01 0.9506481D-01 0.9506481D-01 0.9506481D-01 0.2336777D+00
EXPONENTS  0.2336777D+00 0.2336777D+00 0.2336777D+00 0.2336777D+00 0.2336777D+00
EXPONENTS  0.5744006D+00 0.5744006D+00 0.5744006D+00 0.5744006D+00 0.5744006D+00
EXPONENTS  0.5744006D+00 0.1595675D+00 0.1595675D+00 0.1595675D+00 0.1595675D+00
EXPONENTS  0.1595675D+00 0.1595675D+00 0.1595675D+00 0.1595675D+00 0.1595675D+00
EXPONENTS  0.1595675D+00 0.4273065D+00 0.4273065D+00 0.4273065D+00 0.4273065D+00
EXPONENTS  0.4273065D+00 0.4273065D+00 0.4273065D+00 0.4273065D+00 0.4273065D+00
EXPONENTS  0.4273065D+00 0.1706472D-01 0.4342701D-01 0.1105148D+00 0.2812428D+00
EXPONENTS  0.7157182D+00 0.1821389D+01 0.4963129D-01 0.4963129D-01 0.4963129D-01
EXPONENTS  0.1242075D+00 0.1242075D+00 0.1242075D+00 0.3108421D+00 0.3108421D+00
EXPONENTS  0.3108421D+00 0.7779146D+00 0.7779146D+00 0.7779146D+00 0.9506481D-01
EXPONENTS  0.9506481D-01 0.9506481D-01 0.9506481D-01 0.9506481D-01 0.9506481D-01
EXPONENTS  0.2336777D+00 0.2336777D+00 0.2336777D+00 0.2336777D+00 0.2336777D+00
EXPONENTS  0.2336777D+00 0.5744006D+00 0.5744006D+00 0.5744006D+00 0.5744006D+00
EXPONENTS  0.5744006D+00 0.5744006D+00 0.1595675D+00 0.1595675D+00 0.1595675D+00
EXPONENTS  0.1595675D+00 0.1595675D+00 0.1595675D+00 0.1595675D+00 0.1595675D+00
EXPONENTS  0.1595675D+00 0.1595675D+00 0.4273065D+00 0.4273065D+00 0.4273065D+00
EXPONENTS  0.4273065D+00 0.4273065D+00 0.4273065D+00 0.4273065D+00 0.4273065D+00
EXPONENTS  0.4273065D+00 0.4273065D+00 0.1706472D-01 0.4342701D-01 0.1105148D+00
EXPONENTS  0.2812428D+00 0.7157182D+00 0.1821389D+01 0.4963129D-01 0.4963129D-01
EXPONENTS  0.4963129D-01 0.1242075D+00 0.1242075D+00 0.1242075D+00 0.3108421D+00
EXPONENTS  0.3108421D+00 0.3108421D+00 0.7779146D+00 0.7779146D+00 0.7779146D+00
EXPONENTS  0.9506481D-01 0.9506481D-01 0.9506481D-01 0.9506481D-01 0.9506481D-01
EXPONENTS  0.9506481D-01 0.2336777D+00 0.2336777D+00 0.2336777D+00 0.2336777D+00
EXPONENTS  0.2336777D+00 0.2336777D+00 0.5744006D+00 0.5744006D+00 0.5744006D+00
EXPONENTS  0.5744006D+00 0.5744006D+00 0.5744006D+00 0.1595675D+00 0.1595675D+00
EXPONENTS  0.1595675D+00 0.1595675D+00 0.1595675D+00 0.1595675D+00 0.1595675D+00
EXPONENTS  0.1595675D+00 0.1595675D+00 0.1595675D+00 0.4273065D+00 0.4273065D+00
EXPONENTS  0.4273065D+00 0.4273065D+00 0.4273065D+00 0.4273065D+00 0.4273065D+00
EXPONENTS  0.4273065D+00 0.4273065D+00 0.4273065D+00 0.1706472D-01 0.4342701D-01
EXPONENTS  0.1105148D+00 0.2812428D+00 0.7157182D+00 0.1821389D+01 0.4963129D-01
EXPONENTS  0.4963129D-01 0.4963129D-01 0.1242075D+00 0.1242075D+00 0.1242075D+00
EXPONENTS  0.3108421D+00 0.3108421D+00 0.3108421D+00 0.7779146D+00 0.7779146D+00
EXPONENTS  0.7779146D+00 0.9506481D-01 0.9506481D-01 0.9506481D-01 0.9506481D-01
EXPONENTS  0.9506481D-01 0.9506481D-01 0.2336777D+00 0.2336777D+00 0.2336777D+00
EXPONENTS  0.2336777D+00 0.2336777D+00 0.2336777D+00 0.5744006D+00 0.5744006D+00
EXPONENTS  0.5744006D+00 0.5744006D+00 0.5744006D+00 0.5744006D+00 0.1595675D+00
EXPONENTS  0.1595675D+00 0.1595675D+00 0.1595675D+00 0.1595675D+00 0.1595675D+00
EXPONENTS  0.1595675D+00 0.1595675D+00 0.1595675D+00 0.1595675D+00 0.4273065D+00
EXPONENTS  0.4273065D+00 0.4273065D+00 0.4273065D+00 0.4273065D+00 0.4273065D+00
EXPONENTS  0.4273065D+00 0.4273065D+00 0.4273065D+00 0.4273065D+00
MO    1     MO 0.0        OCC NO =    1.0000000  ORB. ENERGY =   -0.329462
  0.12699193D-02  0.37434643D-01  0.37831139D-01 -0.18406758D-01 -0.45956411D-01
 -0.12425253D-01  0.00000000D+00  0.00000000D+00 -0.60137209D-02  0.00000000D+00
  0.00000000D+00 -0.43211974D-02 -0.00000000D+00  0.00000000D+00 -0.80366970D-02
 -0.00000000D+00 -0.00000000D+00  0.15327423D-01 -0.38837393D-03 -0.46123819D-03
  0.11337753D-02  0.00000000D+00  0.00000000D+00 -0.00000000D+00 -0.27467018D-02
 -0.27993072D-02 -0.27702776D-02 -0.00000000D+00  0.00000000D+00 -0.00000000D+00
 -0.70001802D-02 -0.68974365D-02 -0.73263952D-02 -0.00000000D+00 -0.00000000D+00
 -0.00000000D+00 -0.00000000D+00 -0.00000000D+00 -0.56697555D-03 -0.00000000D+00
 -0.00000000D+00 -0.38213374D-03 -0.00000000D+00 -0.00000000D+00 -0.33548200D-03
 -0.00000000D+00 -0.00000000D+00 -0.00000000D+00  0.16878509D-02  0.00000000D+00
 -0.00000000D+00  0.16019966D-02 -0.00000000D+00 -0.00000000D+00  0.15875732D-02
  0.00000000D+00  0.53482327D-03 -0.21092990D-01  0.45930100D-01 -0.77877919D-01
 -0.66877898D-02 -0.38658665D-02 -0.33391397D-09  0.00000000D+00 -0.48139710D-04
  0.15765799D-07  0.00000000D+00 -0.99516298D-02 -0.00000000D+00  0.00000000D+00
 -0.21875280D-02 -0.00000000D+00 -0.00000000D+00 -0.28341713D-02  0.32472474D-02
 -0.42400603D-03 -0.43732112D-03  0.00000000D+00  0.00000000D+00 -0.00000000D+00
 -0.15808305D-01 -0.51008372D-02 -0.60229652D-02  0.00000000D+00 -0.00000000D+00
 -0.00000000D+00 -0.16581723D-02 -0.31587389D-02 -0.29268466D-02 -0.00000000D+00
  0.00000000D+00 -0.00000000D+00  0.00000000D+00 -0.00000000D+00  0.24180952D-03
 -0.52974216D-09  0.00000000D+00 -0.65219258D-03 -0.52974216D-09 -0.00000000D+00
  0.25688627D-03  0.00000000D+00 -0.00000000D+00 -0.00000000D+00 -0.35286015D-03
 -0.00000000D+00  0.00000000D+00 -0.15173758D-02 -0.00000000D+00 -0.00000000D+00
 -0.33632529D-03  0.00000000D+00  0.18121846D-04  0.22798207D-01 -0.30847454D-01
  0.36684097D-01 -0.16213492D-01 -0.35682893D-02  0.23561431D-02 -0.00000000D+00
  0.25522561D-02  0.11909452D-01 -0.00000000D+00  0.76901752D-02  0.43189227D-02
 -0.00000000D+00  0.48412557D-02 -0.10892728D-04  0.00000000D+00 -0.92601312D-02
  0.14965461D-03 -0.57177716D-03  0.30155434D-03 -0.00000000D+00  0.86574045D-03
  0.00000000D+00  0.41565604D-02  0.10294822D-02  0.10561630D-02 -0.00000000D+00
  0.17599734D-02  0.00000000D+00 -0.25981177D-02 -0.31227465D-02 -0.34529537D-02
 -0.00000000D+00  0.27195470D-03  0.00000000D+00 -0.97331002D-03  0.00000000D+00
 -0.60724468D-04 -0.11443236D-02  0.00000000D+00 -0.13656011D-03 -0.96037220D-03
  0.00000000D+00 -0.22512293D-03  0.00000000D+00  0.43054885D-03  0.00000000D+00
 -0.15839262D-02  0.15802546D-03  0.00000000D+00 -0.96806265D-03  0.18356767D-03
  0.00000000D+00 -0.14624717D-02 -0.00000000D+00  0.18121846D-04  0.22798207D-01
 -0.30847481D-01  0.36684081D-01 -0.16213492D-01 -0.35682893D-02 -0.23561431D-02
 -0.00000000D+00  0.25522561D-02 -0.11909444D-01 -0.00000000D+00  0.76901752D-02
 -0.43189227D-02 -0.00000000D+00  0.48412557D-02  0.10892728D-04  0.00000000D+00
 -0.92601312D-02  0.14965461D-03 -0.57177716D-03  0.30155461D-03  0.00000000D+00
 -0.86574045D-03  0.00000000D+00  0.41565591D-02  0.10294809D-02  0.10561617D-02
  0.00000000D+00 -0.17599734D-02  0.00000000D+00 -0.25981177D-02 -0.31227465D-02
 -0.34529537D-02  0.00000000D+00 -0.27195470D-03 -0.00000000D+00  0.97330979D-03
  0.00000000D+00 -0.60724468D-04  0.11443236D-02  0.00000000D+00 -0.13656011D-03
  0.96037220D-03  0.00000000D+00 -0.22512293D-03 -0.00000000D+00 -0.43054885D-03
  0.00000000D+00 -0.15839262D-02 -0.15802546D-03  0.00000000D+00 -0.96806265D-03
 -0.18356767D-03  0.00000000D+00 -0.14624717D-02  0.00000000D+00
MO    2     MO 0.0        OCC NO =    0.0000000  ORB. ENERGY =   -0.247749
  0.54902772D-02  0.46924164D-01  0.38254635D-01 -0.18936661D-01 -0.46833018D-01
 -0.10855830D-01 -0.00000000D+00 -0.00000000D+00  0.44082865D-02  0.00000000D+00
 -0.00000000D+00  0.77050612D-02  0.00000000D+00 -0.00000000D+00  0.55778524D-02
  0.00000000D+00  0.00000000D+00 -0.18344052D-01 -0.29898160D-03 -0.47403547D-03
 -0.15751776D-02  0.00000000D+00 -0.00000000D+00  0.00000000D+00 -0.45897324D-02
 -0.42970033D-02 -0.48073118D-02 -0.00000000D+00 -0.00000000D+00 -0.00000000D+00
 -0.89269360D-02 -0.92412866D-02 -0.83248642D-02  0.00000000D+00  0.00000000D+00
  0.00000000D+00  0.00000000D+00  0.00000000D+00 -0.22575143D-03  0.00000000D+00
  0.00000000D+00 -0.41671955D-03  0.00000000D+00  0.00000000D+00 -0.35038894D-03
  0.00000000D+00  0.00000000D+00  0.00000000D+00 -0.33589326D-02 -0.00000000D+00
  0.00000000D+00 -0.32744189D-02 -0.00000000D+00  0.00000000D+00 -0.34337662D-02
 -0.00000000D+00 -0.25761149D-02  0.10072482D-01 -0.15759569D+00  0.18591409D+00
  0.14759752D-01  0.69649782D-02  0.33391397D-09  0.00000000D+00 -0.15119822D-02
 -0.38888971D-07  0.00000000D+00 -0.18309589D-01  0.00000000D+00 -0.00000000D+00
 -0.28158051D-02  0.00000000D+00  0.00000000D+00  0.48120346D-02 -0.88199237D-02
  0.15941348D-02  0.86488142D-03 -0.00000000D+00 -0.00000000D+00  0.00000000D+00
  0.36132941D-01  0.13500394D-01  0.14054941D-01  0.00000000D+00  0.00000000D+00
 -0.00000000D+00  0.44196283D-02  0.66491822D-02  0.61489933D-02  0.00000000D+00
 -0.00000000D+00  0.00000000D+00 -0.23690789D-09  0.00000000D+00  0.14758580D-02
  0.10594843D-08  0.00000000D+00 -0.24036838D-02  0.10594843D-08  0.00000000D+00
  0.15790644D-02 -0.00000000D+00  0.00000000D+00  0.00000000D+00  0.20637436D-02
  0.00000000D+00  0.00000000D+00 -0.51667589D-03  0.00000000D+00  0.00000000D+00
  0.19282138D-02  0.00000000D+00 -0.18211967D-02 -0.43696825D-01  0.10142535D+00
 -0.82440257D-01  0.36009231D-01  0.69427976D-02 -0.31814468D-02 -0.00000000D+00
 -0.39461626D-02 -0.23481691D-01  0.00000000D+00  0.15709927D-01 -0.82790553D-02
 -0.00000000D+00 -0.95872765D-03 -0.17805549D-02 -0.00000000D+00  0.53107049D-02
  0.14116113D-03  0.14344652D-02  0.11258610D-02 -0.00000000D+00 -0.66492739D-03
 -0.00000000D+00 -0.90779393D-02 -0.16377148D-02 -0.11184351D-02  0.00000000D+00
  0.40534377D-02  0.00000000D+00  0.69289065D-02  0.81968259D-02  0.76838307D-02
  0.00000000D+00  0.13768227D-02  0.00000000D+00  0.23339277D-02 -0.00000000D+00
 -0.83782121D-03  0.27466368D-02 -0.00000000D+00 -0.12535898D-02  0.27680378D-02
 -0.00000000D+00 -0.82294914D-03 -0.00000000D+00 -0.10461079D-02 -0.00000000D+00
  0.53767914D-03 -0.35175948D-03 -0.00000000D+00  0.18618021D-02 -0.42446927D-03
 -0.00000000D+00  0.47358555D-03  0.00000000D+00 -0.18211967D-02 -0.43696827D-01
  0.10142542D+00 -0.82440219D-01  0.36009225D-01  0.69427976D-02  0.31814468D-02
  0.00000000D+00 -0.39461626D-02  0.23481670D-01 -0.00000000D+00  0.15709927D-01
  0.82790553D-02 -0.00000000D+00 -0.95872765D-03  0.17805445D-02  0.00000000D+00
  0.53107049D-02  0.14116113D-03  0.14344646D-02  0.11258604D-02 -0.00000000D+00
  0.66492739D-03 -0.00000000D+00 -0.90779367D-02 -0.16377109D-02 -0.11184313D-02
  0.00000000D+00 -0.40534377D-02 -0.00000000D+00  0.69289065D-02  0.81968259D-02
  0.76838307D-02 -0.00000000D+00 -0.13768227D-02  0.00000000D+00 -0.23339275D-02
  0.00000000D+00 -0.83782121D-03 -0.27466368D-02  0.00000000D+00 -0.12535898D-02
 -0.27680373D-02  0.00000000D+00 -0.82294861D-03  0.00000000D+00  0.10461079D-02
  0.00000000D+00  0.53767914D-03  0.35175948D-03  0.00000000D+00  0.18618021D-02
  0.42446441D-03  0.00000000D+00  0.47358555D-03  0.00000000D+00
MO    3     MO 0.0        OCC NO =    0.0000000  ORB. ENERGY =   -0.242829
 -0.00000000D+00  0.00000000D+00  0.00000000D+00 -0.00000000D+00 -0.00000000D+00
 -0.00000000D+00 -0.15716796D-01  0.00000000D+00  0.00000000D+00 -0.23802950D-01
 -0.00000000D+00 -0.00000000D+00 -0.69968678D-02  0.00000000D+00 -0.00000000D+00
  0.41174659D-01 -0.00000000D+00  0.00000000D+00 -0.00000000D+00 -0.00000000D+00
 -0.00000000D+00  0.00000000D+00  0.38763616D-02 -0.00000000D+00 -0.00000000D+00
 -0.00000000D+00 -0.00000000D+00 -0.00000000D+00 -0.13090337D-02  0.00000000D+00
 -0.00000000D+00 -0.00000000D+00 -0.00000000D+00  0.00000000D+00  0.56019146D-03
 -0.00000000D+00  0.20366609D-02  0.00000000D+00  0.00000000D+00  0.20956006D-02
  0.00000000D+00  0.00000000D+00  0.13840971D-02  0.00000000D+00 -0.00000000D+00
 -0.00000000D+00  0.94928427D-02 -0.00000000D+00  0.00000000D+00  0.94030153D-02
 -0.00000000D+00 -0.00000000D+00  0.99929598D-02 -0.00000000D+00  0.00000000D+00
  0.00000000D+00 -0.00000000D+00 -0.47460034D-08  0.25682270D-06 -0.11560334D-06
  0.00000000D+00 -0.00000000D+00  0.41026998D-01 -0.00000000D+00 -0.00000000D+00
  0.21123682D+00 -0.00000000D+00 -0.00000000D+00  0.91246663D-02 -0.00000000D+00
 -0.00000000D+00 -0.82957603D-03  0.00000000D+00 -0.00000000D+00  0.15001411D-07
  0.26788233D-09  0.26788233D-09  0.00000000D+00  0.21645790D-01 -0.00000000D+00
 -0.18097468D-07 -0.77560576D-08 -0.77560576D-08 -0.00000000D+00  0.59852305D-02
 -0.00000000D+00 -0.00000000D+00  0.00000000D+00  0.00000000D+00  0.00000000D+00
  0.24890376D-02  0.00000000D+00 -0.47655748D-02  0.00000000D+00  0.00000000D+00
 -0.12297094D-01 -0.00000000D+00 -0.00000000D+00 -0.71273448D-02  0.00000000D+00
  0.00000000D+00  0.00000000D+00 -0.13143205D-02  0.00000000D+00 -0.00000000D+00
 -0.12699526D-02 -0.00000000D+00 -0.00000000D+00 -0.12441188D-02  0.00000000D+00
 -0.00000000D+00  0.00000000D+00  0.79169012D-02  0.16960071D+00  0.14143310D+00
  0.16845035D+00 -0.13083597D-01 -0.40113755D-02  0.17638294D-01  0.00000000D+00
  0.16352369D-01  0.68855260D-01  0.00000000D+00  0.20117648D-01  0.31069885D-02
  0.00000000D+00  0.15203761D-01  0.11606546D-01 -0.00000000D+00  0.23544122D-02
  0.33860964D-02  0.72536160D-03  0.41914927D-02  0.00000000D+00  0.74614816D-02
  0.00000000D+00  0.23668680D-01  0.12045005D-01  0.17230982D-01  0.00000000D+00
  0.37905701D-02  0.00000000D+00 -0.82009117D-04 -0.15342011D-03 -0.26085786D-02
  0.00000000D+00  0.68019468D-03 -0.00000000D+00 -0.30161635D-02 -0.00000000D+00
  0.31465483D-02 -0.41238170D-02 -0.00000000D+00  0.35460294D-02 -0.23372966D-02
 -0.00000000D+00  0.28830380D-02  0.00000000D+00  0.32075606D-02 -0.00000000D+00
  0.36244916D-02  0.19316933D-02 -0.00000000D+00  0.47792374D-02  0.24879606D-02
 -0.00000000D+00  0.39962538D-02  0.00000000D+00 -0.79169012D-02 -0.16960070D+00
 -0.14143346D+00 -0.16845023D+00  0.13083597D-01  0.40113755D-02  0.17638293D-01
  0.00000000D+00 -0.16352369D-01  0.68855251D-01  0.00000000D+00 -0.20117647D-01
  0.31069819D-02 -0.00000000D+00 -0.15203761D-01  0.11606546D-01 -0.00000000D+00
 -0.23544122D-02 -0.33860954D-02 -0.72536294D-03 -0.41914938D-02 -0.00000000D+00
  0.74614816D-02 -0.00000000D+00 -0.23668661D-01 -0.12044996D-01 -0.17230973D-01
 -0.00000000D+00  0.37905701D-02 -0.00000000D+00  0.82015355D-04  0.15342635D-03
  0.26085786D-02 -0.00000000D+00  0.68019468D-03  0.00000000D+00 -0.30161604D-02
 -0.00000000D+00 -0.31465483D-02 -0.41238128D-02 -0.00000000D+00 -0.35460294D-02
 -0.23372923D-02 -0.00000000D+00 -0.28830380D-02  0.00000000D+00  0.32075606D-02
 -0.00000000D+00 -0.36244916D-02  0.19316982D-02 -0.00000000D+00 -0.47792374D-02
  0.24879606D-02 -0.00000000D+00 -0.39962538D-02  0.00000000D+00
MO    4     MO 0.0        OCC NO =    0.0000000  ORB. ENERGY =   -0.233447
 -0.00000000D+00 -0.00000000D+00  0.00000000D+00  0.00000000D+00 -0.00000000D+00
 -0.00000000D+00  0.00000000D+00 -0.24226785D-01  0.00000000D+00  0.00000000D+00
 -0.42899003D-01  0.00000000D+00 -0.00000000D+00 -0.18439895D-02 -0.00000000D+00
 -0.00000000D+00  0.60370135D-01 -0.00000000D+00  0.00000000D+00  0.00000000D+00
 -0.00000000D+00  0.00000000D+00  0.00000000D+00  0.66196447D-02 -0.00000000D+00
 -0.00000000D+00 -0.00000000D+00  0.00000000D+00  0.00000000D+00 -0.57623108D-02
 -0.00000000D+00 -0.00000000D+00 -0.00000000D+00 -0.00000000D+00 -0.00000000D+00
  0.53131377D-02 -0.00000000D+00  0.48931752D-02 -0.00000000D+00 -0.00000000D+00
  0.48611291D-02 -0.00000000D+00 -0.00000000D+00  0.38500547D-02 -0.00000000D+00
 -0.00000000D+00 -0.00000000D+00  0.16929211D-01 -0.00000000D+00 -0.00000000D+00
  0.16919522D-01 -0.00000000D+00 -0.00000000D+00  0.18238863D-01 -0.00000000D+00
 -0.00000000D+00  0.00000000D+00 -0.00000000D+00 -0.00000000D+00  0.00000000D+00
 -0.00000000D+00 -0.00000000D+00  0.00000000D+00  0.51505295D-02 -0.00000000D+00
  0.00000000D+00 -0.12305828D+00 -0.00000000D+00 -0.00000000D+00 -0.16089109D-01
 -0.00000000D+00 -0.00000000D+00  0.22237619D-01  0.00000000D+00 -0.00000000D+00
  0.00000000D+00  0.00000000D+00 -0.00000000D+00  0.00000000D+00  0.12734420D-02
  0.00000000D+00  0.00000000D+00  0.00000000D+00 -0.00000000D+00  0.00000000D+00
  0.43354463D-02 -0.00000000D+00 -0.00000000D+00 -0.00000000D+00 -0.00000000D+00
  0.00000000D+00 -0.39219021D-02 -0.00000000D+00  0.93051733D-02  0.00000000D+00
 -0.00000000D+00 -0.13358199D-01 -0.00000000D+00 -0.00000000D+00  0.92562663D-02
  0.00000000D+00 -0.00000000D+00 -0.00000000D+00  0.10880023D-01  0.00000000D+00
 -0.00000000D+00 -0.44564413D-02 -0.00000000D+00 -0.00000000D+00  0.11258131D-01
  0.00000000D+00  0.00000000D+00 -0.00000000D+00  0.00000000D+00  0.00000000D+00
 -0.00000000D+00  0.00000000D+00 -0.00000000D+00  0.00000000D+00 -0.13085739D-01
  0.00000000D+00 -0.00000000D+00  0.99701760D-01  0.00000000D+00 -0.00000000D+00
  0.11239082D-02  0.00000000D+00  0.00000000D+00  0.11914073D-01 -0.00000000D+00
 -0.00000000D+00  0.00000000D+00  0.00000000D+00 -0.17687997D-02  0.00000000D+00
 -0.42050449D-02 -0.00000000D+00 -0.00000000D+00 -0.00000000D+00  0.25179862D-01
  0.00000000D+00  0.30443603D-02  0.00000000D+00  0.00000000D+00  0.00000000D+00
  0.74129616D-02  0.00000000D+00 -0.31594544D-02  0.00000000D+00 -0.50644106D-02
 -0.00000000D+00  0.00000000D+00 -0.71030615D-02 -0.00000000D+00  0.00000000D+00
 -0.56274387D-02 -0.00000000D+00 -0.90226328D-03  0.00000000D+00 -0.50020723D-03
 -0.00000000D+00  0.00000000D+00  0.76154732D-02  0.00000000D+00  0.00000000D+00
  0.31120586D-03 -0.00000000D+00  0.36532013D-03 -0.00000000D+00 -0.00000000D+00
  0.00000000D+00 -0.00000000D+00  0.00000000D+00 -0.00000000D+00  0.00000000D+00
 -0.13085739D-01  0.00000000D+00  0.00000000D+00  0.99701760D-01  0.00000000D+00
  0.00000000D+00  0.11239082D-02  0.00000000D+00  0.00000000D+00  0.11914073D-01
 -0.00000000D+00 -0.00000000D+00  0.00000000D+00  0.00000000D+00  0.17687997D-02
 -0.00000000D+00 -0.42050449D-02 -0.00000000D+00 -0.00000000D+00 -0.00000000D+00
 -0.25179862D-01 -0.00000000D+00  0.30443603D-02  0.00000000D+00  0.00000000D+00
  0.00000000D+00 -0.74129616D-02 -0.00000000D+00 -0.31594544D-02 -0.00000000D+00
 -0.50644106D-02 -0.00000000D+00 -0.00000000D+00 -0.71030615D-02 -0.00000000D+00
 -0.00000000D+00 -0.56274387D-02 -0.00000000D+00  0.90226328D-03  0.00000000D+00
 -0.50020723D-03 -0.00000000D+00 -0.00000000D+00  0.76154732D-02 -0.00000000D+00
 -0.00000000D+00  0.31120586D-03 -0.00000000D+00 -0.36532013D-03
MO    5     MO 0.0        OCC NO =    0.0000000  ORB. ENERGY =   -0.204804
  0.99479619D-02 -0.13320971D-01 -0.17164731D-02  0.28449569D-02  0.10038509D-03
 -0.16138739D-03 -0.00000000D+00 -0.00000000D+00  0.17251021D-01 -0.00000000D+00
  0.00000000D+00  0.17326692D-01  0.00000000D+00 -0.00000000D+00  0.11230097D-01
  0.00000000D+00 -0.00000000D+00 -0.36534846D-01  0.10478542D-02  0.86797251D-03
 -0.17682157D-02 -0.00000000D+00  0.00000000D+00  0.00000000D+00  0.10904500D-03
  0.48046450D-03  0.77012998D-03 -0.00000000D+00  0.00000000D+00  0.00000000D+00
  0.28525100D-03 -0.12379653D-03  0.48773811D-04  0.00000000D+00 -0.00000000D+00
 -0.00000000D+00  0.00000000D+00 -0.00000000D+00 -0.48427006D-03  0.00000000D+00
 -0.00000000D+00 -0.83740792D-03 -0.00000000D+00 -0.00000000D+00 -0.79253135D-03
 -0.00000000D+00  0.00000000D+00 -0.00000000D+00 -0.68692437D-02  0.00000000D+00
 -0.00000000D+00 -0.65749583D-02  0.00000000D+00 -0.00000000D+00 -0.67270356D-02
 -0.00000000D+00  0.76594814D-02  0.59693338D-01 -0.60185402D-02 -0.43247881D-01
 -0.72844602D-02 -0.29696710D-02 -0.33391397D-09 -0.00000000D+00  0.12706362D-02
  0.63063196D-08 -0.00000000D+00 -0.10316632D-01 -0.00000000D+00 -0.00000000D+00
 -0.12718621D-02  0.00000000D+00 -0.00000000D+00  0.81235281D-02 -0.26064043D-02
 -0.67421134D-03 -0.11229153D-02  0.00000000D+00  0.00000000D+00  0.00000000D+00
 -0.10574882D-01 -0.42523465D-02 -0.29499260D-02 -0.00000000D+00 -0.00000000D+00
  0.00000000D+00 -0.15860315D-02 -0.29167849D-02 -0.33184718D-02 -0.00000000D+00
  0.00000000D+00 -0.00000000D+00  0.00000000D+00  0.00000000D+00  0.13439287D-02
 -0.00000000D+00 -0.00000000D+00 -0.23417946D-02 -0.00000000D+00  0.00000000D+00
  0.14566262D-02  0.00000000D+00 -0.00000000D+00  0.00000000D+00  0.25606409D-02
  0.00000000D+00 -0.00000000D+00  0.92037996D-03  0.00000000D+00  0.00000000D+00
  0.24461532D-02  0.00000000D+00  0.38311707D-02 -0.17758760D-01  0.19301612D-01
  0.18158318D-01 -0.18631153D-01 -0.41139872D-02 -0.47278258D-02  0.00000000D+00
 -0.68565521D-02  0.46821196D-02  0.00000000D+00  0.10091894D-01  0.28022937D-03
  0.00000000D+00 -0.63830615D-02  0.57436961D-02 -0.00000000D+00  0.15655496D-01
 -0.24811931D-03  0.63718358D-03 -0.54329752D-03  0.00000000D+00 -0.17373861D-02
  0.00000000D+00  0.10475318D-02 -0.44862588D-03 -0.29905031D-03  0.00000000D+00
  0.26331580D-02  0.00000000D+00 -0.38938954D-02 -0.38526881D-02 -0.36064300D-02
  0.00000000D+00  0.13443882D-02 -0.00000000D+00 -0.48481305D-03 -0.00000000D+00
 -0.87296555D-03 -0.46166393D-03 -0.00000000D+00 -0.13859416D-02 -0.68107995D-03
 -0.00000000D+00 -0.75251621D-03  0.00000000D+00  0.12709829D-02 -0.00000000D+00
  0.22892466D-02  0.12859991D-02  0.00000000D+00  0.31995903D-02  0.12661086D-02
 -0.00000000D+00  0.22229261D-02  0.00000000D+00  0.38311707D-02 -0.17758758D-01
  0.19301601D-01  0.18158315D-01 -0.18631147D-01 -0.41139872D-02  0.47278255D-02
 -0.00000000D+00 -0.68565521D-02 -0.46821165D-02  0.00000000D+00  0.10091894D-01
 -0.28022937D-03  0.00000000D+00 -0.63830615D-02 -0.57436961D-02 -0.00000000D+00
  0.15655496D-01 -0.24811931D-03  0.63718358D-03 -0.54329752D-03 -0.00000000D+00
  0.17373861D-02 -0.00000000D+00  0.10475318D-02 -0.44862588D-03 -0.29905031D-03
 -0.00000000D+00 -0.26331580D-02 -0.00000000D+00 -0.38938954D-02 -0.38526881D-02
 -0.36064300D-02 -0.00000000D+00 -0.13443882D-02  0.00000000D+00  0.48481305D-03
 -0.00000000D+00 -0.87296555D-03  0.46166393D-03 -0.00000000D+00 -0.13859416D-02
  0.68107995D-03 -0.00000000D+00 -0.75251621D-03  0.00000000D+00 -0.12709829D-02
 -0.00000000D+00  0.22892466D-02 -0.12859991D-02 -0.00000000D+00  0.31995903D-02
 -0.12661086D-02 -0.00000000D+00  0.22229261D-02  0.00000000D+00
MO    6     MO 0.0        OCC NO =    0.0000000  ORB. ENERGY =   -0.184501
  0.00000000D+00 -0.00000000D+00 -0.00000000D+00  0.00000000D+00  0.00000000D+00
  0.00000000D+00 -0.27529695D-01 -0.00000000D+00 -0.00000000D+00 -0.46451652D-01
  0.00000000D+00  0.00000000D+00  0.76664996D-03  0.00000000D+00  0.00000000D+00
  0.61628808D-01 -0.00000000D+00 -0.00000000D+00  0.00000000D+00  0.00000000D+00
  0.00000000D+00 -0.00000000D+00  0.13407362D-02 -0.00000000D+00  0.00000000D+00
  0.00000000D+00  0.00000000D+00  0.00000000D+00 -0.11640081D-02  0.00000000D+00
  0.00000000D+00  0.00000000D+00  0.00000000D+00 -0.00000000D+00  0.13252538D-02
 -0.00000000D+00  0.53353802D-02 -0.00000000D+00 -0.00000000D+00  0.54238270D-02
 -0.00000000D+00 -0.00000000D+00  0.51276477D-02 -0.00000000D+00  0.00000000D+00
 -0.00000000D+00  0.18107490D-01 -0.00000000D+00 -0.00000000D+00  0.17939520D-01
 -0.00000000D+00  0.00000000D+00  0.18492560D-01 -0.00000000D+00 -0.00000000D+00
 -0.00000000D+00  0.00000000D+00 -0.13560010D-08 -0.10792018D-06  0.38534447D-07
 -0.00000000D+00  0.00000000D+00 -0.51784979D-01  0.00000000D+00  0.00000000D+00
  0.31223582D+00  0.00000000D+00  0.00000000D+00  0.10042714D+00  0.00000000D+00
  0.00000000D+00 -0.11921112D-01 -0.00000000D+00  0.00000000D+00 -0.61612937D-08
 -0.00000000D+00 -0.00000000D+00 -0.00000000D+00  0.11110973D-01 -0.00000000D+00
  0.64633813D-08  0.25853525D-08  0.25853525D-08  0.00000000D+00  0.61882389D-02
 -0.00000000D+00  0.00000000D+00 -0.00000000D+00 -0.00000000D+00 -0.00000000D+00
  0.18925113D-02  0.00000000D+00 -0.89187142D-02 -0.00000000D+00 -0.00000000D+00
 -0.15950461D-01  0.00000000D+00  0.00000000D+00 -0.15993223D-01 -0.00000000D+00
 -0.00000000D+00 -0.00000000D+00  0.53382502D-02 -0.00000000D+00 -0.00000000D+00
 -0.13121016D-01  0.00000000D+00  0.00000000D+00 -0.12944908D-01 -0.00000000D+00
 -0.00000000D+00  0.00000000D+00 -0.10275445D-01 -0.19000228D+00  0.13007088D+00
  0.28701470D+00  0.37094722D-01  0.58403395D-02 -0.77995873D-02 -0.00000000D+00
  0.12832965D-02  0.12497299D+00 -0.00000000D+00  0.12873931D-01  0.64588759D-01
 -0.00000000D+00  0.71159230D-02 -0.18699472D-01 -0.00000000D+00  0.33442967D-02
  0.14254900D-02 -0.19996058D-02 -0.21727548D-02 -0.00000000D+00  0.31300538D-02
  0.00000000D+00  0.41050560D-01  0.17890775D-01  0.18101321D-01 -0.00000000D+00
  0.43053522D-02  0.00000000D+00  0.17097713D-01  0.68081041D-02  0.65009395D-02
 -0.00000000D+00 -0.15076302D-03  0.00000000D+00 -0.53333425D-02 -0.00000000D+00
  0.12705489D-02 -0.63861969D-02  0.00000000D+00  0.16451148D-02 -0.64806340D-02
 -0.00000000D+00  0.13194240D-02  0.00000000D+00 -0.59289729D-02 -0.00000000D+00
  0.19689424D-02 -0.84680516D-02 -0.00000000D+00  0.31159172D-02 -0.83322784D-02
 -0.00000000D+00  0.18657676D-02  0.00000000D+00  0.10275445D-01  0.19000228D+00
 -0.13007073D+00 -0.28701474D+00 -0.37094728D-01 -0.58403395D-02 -0.77995876D-02
  0.00000000D+00 -0.12832965D-02  0.12497299D+00 -0.00000000D+00 -0.12873932D-01
  0.64588759D-01 -0.00000000D+00 -0.71159230D-02 -0.18699472D-01  0.00000000D+00
 -0.33442967D-02 -0.14254903D-02  0.19996063D-02  0.21727550D-02  0.00000000D+00
  0.31300538D-02  0.00000000D+00 -0.41050566D-01 -0.17890779D-01 -0.18101325D-01
  0.00000000D+00  0.43053522D-02  0.00000000D+00 -0.17097719D-01 -0.68081041D-02
 -0.65009395D-02  0.00000000D+00 -0.15076302D-03 -0.00000000D+00 -0.53333437D-02
  0.00000000D+00 -0.12705489D-02 -0.63861985D-02  0.00000000D+00 -0.16451148D-02
 -0.64806351D-02  0.00000000D+00 -0.13194240D-02 -0.00000000D+00 -0.59289729D-02
  0.00000000D+00 -0.19689424D-02 -0.84680516D-02  0.00000000D+00 -0.31159172D-02
 -0.83322784D-02  0.00000000D+00 -0.18657676D-02 -0.00000000D+00
MO    7     MO 0.0        OCC NO =    0.0000000  ORB. ENERGY =   -0.177895
 -0.00000000D+00  0.00000000D+00  0.00000000D+00 -0.00000000D+00 -0.00000000D+00
 -0.00000000D+00 -0.00000000D+00 -0.24663236D-01 -0.00000000D+00 -0.00000000D+00
 -0.40866876D-01  0.00000000D+00 -0.00000000D+00  0.22219053D-04 -0.00000000D+00
  0.00000000D+00  0.54815031D-01 -0.00000000D+00 -0.00000000D+00 -0.00000000D+00
 -0.00000000D+00 -0.00000000D+00 -0.00000000D+00 -0.62286894D-03 -0.00000000D+00
 -0.00000000D+00 -0.00000000D+00  0.00000000D+00 -0.00000000D+00  0.80517785D-03
 -0.00000000D+00 -0.00000000D+00 -0.00000000D+00 -0.00000000D+00  0.00000000D+00
 -0.38296875D-03  0.00000000D+00  0.45472464D-02 -0.00000000D+00  0.00000000D+00
  0.44582713D-02 -0.00000000D+00  0.00000000D+00  0.47105610D-02 -0.00000000D+00
  0.00000000D+00  0.00000000D+00  0.15711157D-01 -0.00000000D+00  0.00000000D+00
  0.15917981D-01 -0.00000000D+00  0.00000000D+00  0.15677206D-01 -0.00000000D+00
 -0.00000000D+00 -0.00000000D+00 -0.00000000D+00  0.00000000D+00 -0.00000000D+00
  0.00000000D+00  0.00000000D+00  0.00000000D+00 -0.34234503D-02 -0.00000000D+00
 -0.00000000D+00  0.24081327D+00 -0.00000000D+00  0.00000000D+00  0.33786022D-01
 -0.00000000D+00  0.00000000D+00 -0.36958965D-01  0.00000000D+00  0.00000000D+00
 -0.00000000D+00 -0.00000000D+00  0.00000000D+00 -0.00000000D+00  0.17402103D-02
 -0.00000000D+00 -0.00000000D+00 -0.00000000D+00  0.00000000D+00 -0.00000000D+00
 -0.17241273D-02  0.00000000D+00  0.00000000D+00  0.00000000D+00  0.00000000D+00
 -0.00000000D+00  0.19883345D-02 -0.00000000D+00 -0.16606001D-01  0.00000000D+00
  0.00000000D+00  0.25437228D-01 -0.00000000D+00  0.00000000D+00 -0.16408673D-01
  0.00000000D+00  0.00000000D+00  0.00000000D+00 -0.18755486D-01  0.00000000D+00