[Molden Format]
[Title]
 Molden2AIM, Version 3.1.0 (02/25/2015)           Time: Wed Apr 23 15:35:18 2025

[Atoms] Angs
E+       1       9     0.00000000     0.00000000     4.00000000
E+       2       1     0.00000000     0.00000000     0.00000000
E+       3       9    -1.13930000     0.00000000     0.00000000
E+       4       9     1.13930000     0.00000000     0.00000000
[GTO]
    1 0
 S   1 1.0
    0.1706471990D-01      0.1000000000D+01
 S   1 1.0
    0.4342700594D-01      0.1000000000D+01
 S   1 1.0
    0.1105148433D+00      0.1000000000D+01
 S   1 1.0
    0.2812427502D+00      0.1000000000D+01
 S   1 1.0
    0.7157181984D+00      0.1000000000D+01
 S   1 1.0
    0.1821389313D+01      0.1000000000D+01
 P   1 1.0
    0.4963129460D-01      0.1000000000D+01
 P   1 1.0
    0.1242074681D+00      0.1000000000D+01
 P   1 1.0
    0.3108420859D+00      0.1000000000D+01
 P   1 1.0
    0.7779145957D+00      0.1000000000D+01
 D   1 1.0
    0.9506480910D-01      0.1000000000D+01
 D   1 1.0
    0.2336777293D+00      0.1000000000D+01
 D   1 1.0
    0.5744005767D+00      0.1000000000D+01
 F   1 1.0
    0.1595675148D+00      0.1000000000D+01
 F   1 1.0
    0.4273064585D+00      0.1000000000D+01

    2 0
 S   1 1.0
    0.1706471990D-01      0.1000000000D+01
 S   1 1.0
    0.4342700594D-01      0.1000000000D+01
 S   1 1.0
    0.1105148433D+00      0.1000000000D+01
 S   1 1.0
    0.2812427502D+00      0.1000000000D+01
 S   1 1.0
    0.7157181984D+00      0.1000000000D+01
 S   1 1.0
    0.1821389313D+01      0.1000000000D+01
 P   1 1.0
    0.4963129460D-01      0.1000000000D+01
 P   1 1.0
    0.1242074681D+00      0.1000000000D+01
 P   1 1.0
    0.3108420859D+00      0.1000000000D+01
 P   1 1.0
    0.7779145957D+00      0.1000000000D+01
 D   1 1.0
    0.9506480910D-01      0.1000000000D+01
 D   1 1.0
    0.2336777293D+00      0.1000000000D+01
 D   1 1.0
    0.5744005767D+00      0.1000000000D+01
 F   1 1.0
    0.1595675148D+00      0.1000000000D+01
 F   1 1.0
    0.4273064585D+00      0.1000000000D+01

    3 0
 S   1 1.0
    0.1706471990D-01      0.1000000000D+01
 S   1 1.0
    0.4342700594D-01      0.1000000000D+01
 S   1 1.0
    0.1105148433D+00      0.1000000000D+01
 S   1 1.0
    0.2812427502D+00      0.1000000000D+01
 S   1 1.0
    0.7157181984D+00      0.1000000000D+01
 S   1 1.0
    0.1821389313D+01      0.1000000000D+01
 P   1 1.0
    0.4963129460D-01      0.1000000000D+01
 P   1 1.0
    0.1242074681D+00      0.1000000000D+01
 P   1 1.0
    0.3108420859D+00      0.1000000000D+01
 P   1 1.0
    0.7779145957D+00      0.1000000000D+01
 D   1 1.0
    0.9506480910D-01      0.1000000000D+01
 D   1 1.0
    0.2336777293D+00      0.1000000000D+01
 D   1 1.0
    0.5744005767D+00      0.1000000000D+01
 F   1 1.0
    0.1595675148D+00      0.1000000000D+01
 F   1 1.0
    0.4273064585D+00      0.1000000000D+01

    4 0
 S   1 1.0
    0.1706471990D-01      0.1000000000D+01
 S   1 1.0
    0.4342700594D-01      0.1000000000D+01
 S   1 1.0
    0.1105148433D+00      0.1000000000D+01
 S   1 1.0
    0.2812427502D+00      0.1000000000D+01
 S   1 1.0
    0.7157181984D+00      0.1000000000D+01
 S   1 1.0
    0.1821389313D+01      0.1000000000D+01
 P   1 1.0
    0.4963129460D-01      0.1000000000D+01
 P   1 1.0
    0.1242074681D+00      0.1000000000D+01
 P   1 1.0
    0.3108420859D+00      0.1000000000D+01
 P   1 1.0
    0.7779145957D+00      0.1000000000D+01
 D   1 1.0
    0.9506480910D-01      0.1000000000D+01
 D   1 1.0
    0.2336777293D+00      0.1000000000D+01
 D   1 1.0
    0.5744005767D+00      0.1000000000D+01
 F   1 1.0
    0.1595675148D+00      0.1000000000D+01
 F   1 1.0
    0.4273064585D+00      0.1000000000D+01


[MO]
 Ene=         -0.32946200
 Spin= Alpha
 Occup=        1.00000000
    1        0.0377391100
    2        0.5521329800
    3        0.2769324600
    4       -0.0668738300
    5       -0.0828665900
    6       -0.0111197000
    7        0.0000000000
    8        0.0000000000
    9       -0.1800979100
   10        0.0000000000
   11        0.0000000000
   12       -0.0411130200
   13       -0.0000000000
   14        0.0000000000
   15       -0.0242919700
   16       -0.0000000000
   17       -0.0000000000
   18        0.0147185200
   19       -0.0144979300
   20       -0.0172179400
   21        0.0423236300
   22        0.0000000000
   23        0.0000000000
   24       -0.0000000000
   25       -0.0212481800
   26       -0.0216551300
   27       -0.0214305600
   28       -0.0000000000
   29        0.0000000000
   30       -0.0000000000
   31       -0.0112220900
   32       -0.0110573800
   33       -0.0117450500
   34       -0.0000000000
   35       -0.0000000000
   36       -0.0000000000
   37       -0.0000000000
   38       -0.0000000000
   39       -0.0239323200
   40       -0.0000000000
   41       -0.0000000000
   42       -0.0072135800
   43       -0.0000000000
   44       -0.0000000000
   45       -0.0063329300
   46       -0.0000000000
   47       -0.0000000000
   48       -0.0000000000
   49        0.0077663300
   50        0.0000000000
   51       -0.0000000000
   52        0.0032965400
   53       -0.0000000000
   54       -0.0000000000
   55        0.0032668600
   56        0.0000000000
   57        0.0158937300
   58       -0.3111058200
   59        0.3362186800
   60       -0.2829392800
   61       -0.0120591300
   62       -0.0034596700
   63       -0.0000000100
   64        0.0000000000
   65       -0.0014416800
   66        0.0000001500
   67        0.0000000000
   68       -0.0946824500
   69       -0.0000000000
   70        0.0000000000
   71       -0.0066120900
   72       -0.0000000000
   73       -0.0000000000
   74       -0.0027215800
   75        0.1212191700
   76       -0.0158280700
   77       -0.0163251200
   78        0.0000000000
   79        0.0000000000
   80       -0.0000000000
   81       -0.1222912900
   82       -0.0394595100
   83       -0.0465929900
   84        0.0000000000
   85       -0.0000000000
   86       -0.0000000000
   87       -0.0026582400
   88       -0.0050638200
   89       -0.0046920700
   90       -0.0000000000
   91        0.0000000000
   92       -0.0000000000
   93        0.0000000000
   94       -0.0000000000
   95        0.0102069000
   96       -0.0000000100
   97        0.0000000000
   98       -0.0123115100
   99       -0.0000000100
  100       -0.0000000000
  101        0.0048492700
  102        0.0000000000
  103       -0.0000000000
  104       -0.0000000000
  105       -0.0016236200
  106       -0.0000000000
  107        0.0000000000
  108       -0.0031224100
  109       -0.0000000000
  110       -0.0000000000
  111       -0.0006920800
  112        0.0000000000
  113        0.0005385400
  114        0.3362565000
  115       -0.2258103100
  116        0.1332774700
  117       -0.0292354600
  118       -0.0031933600
  119        0.0705613800
  120       -0.0000000000
  121        0.0764345400
  122        0.1133096900
  123       -0.0000000000
  124        0.0731663700
  125        0.0130545100
  126       -0.0000000000
  127        0.0146333300
  128       -0.0000104600
  129        0.0000000000
  130       -0.0088922600
  131        0.0055865800
  132       -0.0213443400
  133        0.0112569700
  134       -0.0000000000
  135        0.0186587700
  136        0.0000000000
  137        0.0321546900
  138        0.0079639600
  139        0.0081703600
  140       -0.0000000000
  141        0.0078606000
  142        0.0000000000
  143       -0.0041650800
  144       -0.0050061200
  145       -0.0055354800
  146       -0.0000000000
  147        0.0002517100
  148        0.0000000000
  149       -0.0410839000
  150        0.0000000000
  151       -0.0025632100
  152       -0.0216015200
  153        0.0000000000
  154       -0.0025778600
  155       -0.0181290500
  156        0.0000000000
  157       -0.0042496700
  158        0.0000000000
  159        0.0019810900
  160        0.0000000000
  161       -0.0072881400
  162        0.0003251800
  163        0.0000000000
  164       -0.0019920500
  165        0.0003777400
  166        0.0000000000
  167       -0.0030094300
  168       -0.0000000000
  169        0.0005385400
  170        0.3362565000
  171       -0.2258105100
  172        0.1332774100
  173       -0.0292354600
  174       -0.0031933600
  175       -0.0705613800
  176       -0.0000000000
  177        0.0764345400
  178       -0.1133096100
  179       -0.0000000000
  180        0.0731663700
  181       -0.0130545100
  182       -0.0000000000
  183        0.0146333300
  184        0.0000104600
  185        0.0000000000
  186       -0.0088922600
  187        0.0055865800
  188       -0.0213443400
  189        0.0112569800
  190        0.0000000000
  191       -0.0186587700
  192        0.0000000000
  193        0.0321546800
  194        0.0079639500
  195        0.0081703500
  196        0.0000000000
  197       -0.0078606000
  198        0.0000000000
  199       -0.0041650800
  200       -0.0050061200
  201       -0.0055354800
  202        0.0000000000
  203       -0.0002517100
  204       -0.0000000000
  205        0.0410838900
  206        0.0000000000
  207       -0.0025632100
  208        0.0216015200
  209        0.0000000000
  210       -0.0025778600
  211        0.0181290500
  212        0.0000000000
  213       -0.0042496700
  214       -0.0000000000
  215       -0.0019810900
  216        0.0000000000
  217       -0.0072881400
  218       -0.0003251800
  219        0.0000000000
  220       -0.0019920500
  221       -0.0003777400
  222        0.0000000000
  223       -0.0030094300
  224        0.0000000000
 Ene=         -0.24774900
 Spin= Alpha
 Occup=        0.00000000
    1        0.1631585400
    2        0.6920963200
    3        0.2800325500
    4       -0.0687990300
    5       -0.0844472500
    6       -0.0097151800
    7       -0.0000000000
    8       -0.0000000000
    9        0.1320186300
   10        0.0000000000
   11       -0.0000000000
   12        0.0733080000
   13        0.0000000000
   14       -0.0000000000
   15        0.0168597900
   16        0.0000000000
   17        0.0000000000
   18       -0.0176153100
   19       -0.0111609300
   20       -0.0176956600
   21       -0.0588011000
   22        0.0000000000
   23       -0.0000000000
   24        0.0000000000
   25       -0.0355056600
   26       -0.0332411400
   27       -0.0371888300
   28       -0.0000000000
   29       -0.0000000000
   30       -0.0000000000
   31       -0.0143109000
   32       -0.0148148400
   33       -0.0133457100
   34        0.0000000000
   35        0.0000000000
   36        0.0000000000
   37        0.0000000000
   38        0.0000000000
   39       -0.0095290800
   40        0.0000000000
   41        0.0000000000
   42       -0.0078664600
   43        0.0000000000
   44        0.0000000000
   45       -0.0066143300
   46        0.0000000000
   47        0.0000000000
   48        0.0000000000
   49       -0.0154555000
   50       -0.0000000000
   51        0.0000000000
   52       -0.0067380000
   53       -0.0000000000
   54        0.0000000000
   55       -0.0070659000
   56       -0.0000000000
   57       -0.0765562700
   58        0.1485615700
   59       -1.1536359900
   60        0.6754468800
   61        0.0266141400
   62        0.0062331500
   63        0.0000000100
   64        0.0000000000
   65       -0.0452805900
   66       -0.0000003700
   67        0.0000000000
   68       -0.1742022900
   69        0.0000000000
   70       -0.0000000000
   71       -0.0085111400
   72        0.0000000000
   73        0.0000000000
   74        0.0046208700
   75       -0.3292461900
   76        0.0595087700
   77        0.0322858700
   78       -0.0000000000
   79       -0.0000000000
   80        0.0000000000
   81        0.2795204200
   82        0.1044375500
   83        0.1087274600
   84        0.0000000000
   85        0.0000000000
   86       -0.0000000000
   87        0.0070851700
   88        0.0106594000
   89        0.0098575400
   90        0.0000000000
   91       -0.0000000000
   92        0.0000000000
   93       -0.0000000100
   94        0.0000000000
   95        0.0622967000
   96        0.0000000200
   97        0.0000000000
   98       -0.0453746000
   99        0.0000000200
  100        0.0000000000
  101        0.0298081700
  102       -0.0000000000
  103        0.0000000000
  104        0.0000000000
  105        0.0094959300
  106        0.0000000000
  107        0.0000000000
  108       -0.0010632000
  109        0.0000000000
  110        0.0000000000
  111        0.0039678200
  112        0.0000000000
  113       -0.0541218200
  114       -0.6444954800
  115        0.7424563800
  116       -0.2995147700
  117        0.0649302700
  118        0.0062133000
  119       -0.0952774400
  120       -0.0000000000
  121       -0.1181790200
  122       -0.2234110500
  123        0.0000000000
  124        0.1494684200
  125       -0.0250245300
  126       -0.0000000000
  127       -0.0028978800
  128       -0.0017098200
  129       -0.0000000000
  130        0.0050997300
  131        0.0052695200
  132        0.0535483300
  133        0.0420281900
  134       -0.0000000000
  135       -0.0143307700
  136       -0.0000000000
  137       -0.0702259300
  138       -0.0126691800
  139       -0.0086520900
  140        0.0000000000
  141        0.0181039400
  142        0.0000000000
  143        0.0111078300
  144        0.0131404500
  145        0.0123180600
  146        0.0000000000
  147        0.0012743300
  148        0.0000000000
  149        0.0985162500
  150       -0.0000000000
  151       -0.0353648500
  152        0.0518485600
  153       -0.0000000000
  154       -0.0236641500
  155        0.0522525500
  156       -0.0000000000
  157       -0.0155349000
  158       -0.0000000000
  159       -0.0048134700
  160       -0.0000000000
  161        0.0024740300
  162       -0.0007238400
  163       -0.0000000000
  164        0.0038311600
  165       -0.0008734600
  166       -0.0000000000
  167        0.0009745300
  168        0.0000000000
  169       -0.0541218200
  170       -0.6444955000
  171        0.7424569100
  172       -0.2995146300
  173        0.0649302600
  174        0.0062133000
  175        0.0952774400
  176        0.0000000000
  177       -0.1181790200
  178        0.2234108500
  179       -0.0000000000
  180        0.1494684200
  181        0.0250245300
  182       -0.0000000000
  183       -0.0028978800
  184        0.0017098100
  185        0.0000000000
  186        0.0050997300
  187        0.0052695200
  188        0.0535483100
  189        0.0420281700
  190       -0.0000000000
  191        0.0143307700
  192       -0.0000000000
  193       -0.0702259100
  194       -0.0126691500
  195       -0.0086520600
  196        0.0000000000
  197       -0.0181039400
  198       -0.0000000000
  199        0.0111078300
  200        0.0131404500
  201        0.0123180600
  202       -0.0000000000
  203       -0.0012743300
  204        0.0000000000
  205       -0.0985162400
  206        0.0000000000
  207       -0.0353648500
  208       -0.0518485600
  209        0.0000000000
  210       -0.0236641500
  211       -0.0522525400
  212        0.0000000000
  213       -0.0155348900
  214        0.0000000000
  215        0.0048134700
  216        0.0000000000
  217        0.0024740300
  218        0.0007238400
  219        0.0000000000
  220        0.0038311600
  221        0.0008734500
  222        0.0000000000
  223        0.0009745300
  224        0.0000000000
 Ene=         -0.24282900
 Spin= Alpha
 Occup=        0.00000000
    1       -0.0000000000
    2        0.0000000000
    3        0.0000000000
    4       -0.0000000000
    5       -0.0000000000
    6       -0.0000000000
    7       -0.4706839900
    8        0.0000000000
    9        0.0000000000
   10       -0.2264675900
   11       -0.0000000000
   12       -0.0000000000
   13       -0.0211489500
   14        0.0000000000
   15       -0.0000000000
   16        0.0395389400
   17       -0.0000000000
   18        0.0000000000
   19       -0.0000000000
   20       -0.0000000000
   21       -0.0000000000
   22        0.0000000000
   23        0.0835448300
   24       -0.0000000000
   25       -0.0000000000
   26       -0.0000000000
   27       -0.0000000000
   28       -0.0000000000
   29       -0.0058465600
   30        0.0000000000
   31       -0.0000000000
   32       -0.0000000000
   33       -0.0000000000
   34        0.0000000000
   35        0.0005184900
   36       -0.0000000000
   37        0.0859684700
   38        0.0000000000
   39        0.0000000000
   40        0.0395588800
   41        0.0000000000
   42        0.0000000000
   43        0.0261277500
   44        0.0000000000
   45       -0.0000000000
   46       -0.0000000000
   47        0.0436795400
   48       -0.0000000000
   49        0.0000000000
   50        0.0193492400
   51       -0.0000000000
   52       -0.0000000000
   53        0.0205632100
   54       -0.0000000000
   55        0.0000000000
   56        0.0000000000
   57       -0.0000000000
   58       -0.0000000700
   59        0.0000018800
   60       -0.0000004200
   61        0.0000000000
   62       -0.0000000000
   63        1.2286697000
   64       -0.0000000000
   65       -0.0000000000
   66        2.0097632600
   67       -0.0000000000
   68       -0.0000000000
   69        0.0275805000
   70       -0.0000000000
   71       -0.0000000000
   72       -0.0007966200
   73        0.0000000000
   74       -0.0000000000
   75        0.0000005600
   76        0.0000000100
   77        0.0000000100
   78        0.0000000000
   79        0.4665183600
   80       -0.0000000000
   81       -0.0000001400
   82       -0.0000000600
   83       -0.0000000600
   84       -0.0000000000
   85        0.0267319400
   86       -0.0000000000
   87       -0.0000000000
   88        0.0000000000
   89        0.0000000000
   90        0.0000000000
   91        0.0023037500
   92        0.0000000000
   93       -0.2011572800
   94        0.0000000000
   95        0.0000000000
   96       -0.2321335700
   97       -0.0000000000
   98       -0.0000000000
   99       -0.1345436600
  100        0.0000000000
  101        0.0000000000
  102        0.0000000000
  103       -0.0060476000
  104        0.0000000000
  105       -0.0000000000
  106       -0.0026132700
  107       -0.0000000000
  108       -0.0000000000
  109       -0.0025601100
  110        0.0000000000
  111       -0.0000000000
  112        0.0000000000
  113        0.2352722800
  114        2.5014835300
  115        1.0353221700
  116        0.6119991700
  117       -0.0235917700
  118       -0.0035898900
  119        0.5282287000
  120        0.0000000000
  121        0.4897180200
  122        0.6551072400
  123        0.0000000000
  124        0.1914046500
  125        0.0093912800
  126        0.0000000000
  127        0.0459553600
  128        0.0111454600
  129       -0.0000000000
  130        0.0022608800
  131        0.1264023800
  132        0.0270776200
  133        0.1564676800
  134        0.0000000000
  135        0.1608127100
  136        0.0000000000
  137        0.1830982800
  138        0.0931788200
  139        0.1332969600
  140        0.0000000000
  141        0.0169298900
  142        0.0000000000
  143       -0.0001314700
  144       -0.0002459500
  145       -0.0041818500
  146        0.0000000000
  147        0.0006295600
  148       -0.0000000000
  149       -0.1273137600
  150       -0.0000000000
  151        0.1328173700
  152       -0.0778457400
  153       -0.0000000000
  154        0.0669387800
  155       -0.0441214000
  156       -0.0000000000
  157        0.0544234200
  158        0.0000000000
  159        0.0147589900
  160       -0.0000000000
  161        0.0166774200
  162        0.0039749800
  163       -0.0000000000
  164        0.0098345700
  165        0.0051196500
  166       -0.0000000000
  167        0.0082233700
  168        0.0000000000
  169       -0.2352722800
  170       -2.5014834500
  171       -1.0353247900
  172       -0.6119987200
  173        0.0235917700
  174        0.0035898900
  175        0.5282286700
  176        0.0000000000
  177       -0.4897180200
  178        0.6551071500
  179        0.0000000000
  180       -0.1914046400
  181        0.0093912600
  182       -0.0000000000
  183       -0.0459553600
  184        0.0111454600
  185       -0.0000000000
  186       -0.0022608800
  187       -0.1264023400
  188       -0.0270776700
  189       -0.1564677200
  190       -0.0000000000
  191        0.1608127100
  192       -0.0000000000
  193       -0.1830981300
  194       -0.0931787500
  195       -0.1332968900
  196       -0.0000000000
  197        0.0169298900
  198       -0.0000000000
  199        0.0001314800
  200        0.0002459600
  201        0.0041818500
  202       -0.0000000000
  203        0.0006295600
  204        0.0000000000
  205       -0.1273136300
  206       -0.0000000000
  207       -0.1328173700
  208       -0.0778456600
  209       -0.0000000000
  210       -0.0669387800
  211       -0.0441213200
  212       -0.0000000000
  213       -0.0544234200
  214        0.0000000000
  215        0.0147589900
  216       -0.0000000000
  217       -0.0166774200
  218        0.0039749900
  219       -0.0000000000
  220       -0.0098345700
  221        0.0051196500
  222       -0.0000000000
  223       -0.0082233700
  224        0.0000000000
 Ene=         -0.23344700
 Spin= Alpha
 Occup=        0.00000000
    1       -0.0000000000
    2       -0.0000000000
    3        0.0000000000
    4        0.0000000000
    5       -0.0000000000
    6       -0.0000000000
    7        0.0000000000
    8       -0.7255397300
    9        0.0000000000
   10        0.0000000000
   11       -0.4081525100
   12        0.0000000000
   13       -0.0000000000
   14       -0.0055737000
   15       -0.0000000000
   16       -0.0000000000
   17        0.0579718500
   18       -0.0000000000
   19        0.0000000000
   20        0.0000000000
   21       -0.0000000000
   22        0.0000000000
   23        0.0000000000
   24        0.1426691200
   25       -0.0000000000
   26       -0.0000000000
   27       -0.0000000000
   28        0.0000000000
   29        0.0000000000
   30       -0.0257363100
   31       -0.0000000000
   32       -0.0000000000
   33       -0.0000000000
   34       -0.0000000000
   35       -0.0000000000
   36        0.0049176200
   37       -0.0000000000
   38        0.2065433600
   39       -0.0000000000
   40       -0.0000000000
   41        0.0917640600
   42       -0.0000000000
   43       -0.0000000000
   44        0.0726779000
   45       -0.0000000000
   46       -0.0000000000
   47       -0.0000000000
   48        0.0778966000
   49       -0.0000000000
   50       -0.0000000000
   51        0.0348164800
   52       -0.0000000000
   53       -0.0000000000
   54        0.0375313800
   55       -0.0000000000
   56       -0.0000000000
   57        0.0000000000
   58       -0.0000000000
   59       -0.0000000000
   60        0.0000000000
   61       -0.0000000000
   62       -0.0000000000
   63        0.0000000000
   64        0.1542472000
   65       -0.0000000000
   66        0.0000000000
   67       -1.1708091900
   68       -0.0000000000
   69       -0.0000000000
   70       -0.0486314400
   71       -0.0000000000
   72       -0.0000000000
   73        0.0213542000
   74        0.0000000000
   75       -0.0000000000
   76        0.0000000000
   77        0.0000000000
   78       -0.0000000000
   79        0.0000000000
   80        0.0274457100
   81        0.0000000000
   82        0.0000000000
   83        0.0000000000
   84       -0.0000000000
   85        0.0000000000
   86        0.0193634800
   87       -0.0000000000
   88       -0.0000000000
   89       -0.0000000000
   90       -0.0000000000
   91        0.0000000000
   92       -0.0036299500
   93       -0.0000000000
   94        0.3927759900
   95        0.0000000000
   96       -0.0000000000
   97       -0.2521641700
   98       -0.0000000000
   99       -0.0000000000
  100        0.1747315400
  101        0.0000000000
  102       -0.0000000000
  103       -0.0000000000
  104        0.0500623900
  105        0.0000000000
  106       -0.0000000000
  107       -0.0091703300
  108       -0.0000000000
  109       -0.0000000000
  110        0.0231666400
  111        0.0000000000
  112        0.0000000000
  113       -0.0000000000
  114        0.0000000000
  115        0.0000000000
  116       -0.0000000000
  117        0.0000000000
  118       -0.0000000000
  119        0.0000000000
  120       -0.3918895300
  121        0.0000000000
  122       -0.0000000000
  123        0.9485890400
  124        0.0000000000
  125       -0.0000000000
  126        0.0033971600
  127        0.0000000000
  128        0.0000000000
  129        0.0114407700
  130       -0.0000000000
  131       -0.0000000000
  132        0.0000000000
  133        0.0000000000
  134       -0.0381218500
  135        0.0000000000
  136       -0.0906287400
  137       -0.0000000000
  138       -0.0000000000
  139       -0.0000000000
  140        0.1124612600
  141        0.0000000000
  142        0.0135970800
  143        0.0000000000
  144        0.0000000000
  145        0.0000000000
  146        0.0068611300
  147        0.0000000000
  148       -0.0029242600
  149        0.0000000000
  150       -0.2137712900
  151       -0.0000000000
  152        0.0000000000
  153       -0.1340852600
  154       -0.0000000000
  155        0.0000000000
  156       -0.1062297700
  157       -0.0000000000
  158       -0.0098335000
  159        0.0000000000
  160       -0.0023016100
  161       -0.0000000000
  162        0.0000000000
  163        0.0156708900
  164        0.0000000000
  165        0.0000000000
  166        0.0006403900
  167       -0.0000000000
  168        0.0004340200
  169       -0.0000000000
  170       -0.0000000000
  171        0.0000000000
  172       -0.0000000000
  173        0.0000000000
  174       -0.0000000000
  175        0.0000000000
  176       -0.3918895300
  177        0.0000000000
  178        0.0000000000
  179        0.9485890400
  180        0.0000000000
  181        0.0000000000
  182        0.0033971600
  183        0.0000000000
  184        0.0000000000
  185        0.0114407700
  186       -0.0000000000
  187       -0.0000000000
  188        0.0000000000
  189        0.0000000000
  190        0.0381218500
  191       -0.0000000000
  192       -0.0906287400
  193       -0.0000000000
  194       -0.0000000000
  195       -0.0000000000
  196       -0.1124612600
  197       -0.0000000000
  198        0.0135970800
  199        0.0000000000
  200        0.0000000000
  201        0.0000000000
  202       -0.0068611300
  203       -0.0000000000
  204       -0.0029242600
  205       -0.0000000000
  206       -0.2137712900
  207       -0.0000000000
  208       -0.0000000000
  209       -0.1340852600
  210       -0.0000000000
  211       -0.0000000000
  212       -0.1062297700
  213       -0.0000000000
  214        0.0098335000
  215        0.0000000000
  216       -0.0023016100
  217       -0.0000000000
  218       -0.0000000000
  219        0.0156708900
  220       -0.0000000000
  221       -0.0000000000
  222        0.0006403900
  223       -0.0000000000
  224       -0.0004340200
 Ene=         -0.20480400
 Spin= Alpha
 Occup=        0.00000000
    1        0.2956307800
    2       -0.1964743500
    3       -0.0125649700
    4        0.0103360500
    5        0.0001810100
    6       -0.0001444300
    7       -0.0000000000
    8       -0.0000000000
    9        0.5166307000
   10       -0.0000000000
   11        0.0000000000
   12        0.1648507500
   13        0.0000000000
   14       -0.0000000000
   15        0.0339444400
   16        0.0000000000
   17       -0.0000000000
   18       -0.0350834500
   19        0.0391162100
   20        0.0324012600
   21       -0.0660071800
   22       -0.0000000000
   23        0.0000000000
   24        0.0000000000
   25        0.0008435600
   26        0.0037168200
   27        0.0059576400
   28       -0.0000000000
   29        0.0000000000
   30        0.0000000000
   31        0.0004572900
   32       -0.0001984600
   33        0.0000781900
   34        0.0000000000
   35       -0.0000000000
   36       -0.0000000000
   37        0.0000000000
   38       -0.0000000000
   39       -0.0204412800
   40        0.0000000000
   41       -0.0000000000
   42       -0.0158078400
   43       -0.0000000000
   44       -0.0000000000
   45       -0.0149607000
   46       -0.0000000000
   47        0.0000000000
   48       -0.0000000000
   49       -0.0316075400
   50        0.0000000000
   51       -0.0000000000
   52       -0.0135297500
   53        0.0000000000
   54       -0.0000000000
   55       -0.0138426900
   56       -0.0000000000
   57        0.2276223500
   58        0.8804320800
   59       -0.0440570700
   60       -0.1571244400
   61       -0.0131350200
   62       -0.0026576400
   63       -0.0000000100
   64       -0.0000000000
   65        0.0380528000
   66        0.0000000600
   67       -0.0000000000
   68       -0.0981551800
   69       -0.0000000000
   70       -0.0000000000
   71       -0.0038443700
   72        0.0000000000
   73       -0.0000000000
   74        0.0078008100
   75       -0.0972966100
   76       -0.0251681900
   77       -0.0419182300
   78        0.0000000000
   79        0.0000000000
   80        0.0000000000
   81       -0.0818061100
   82       -0.0328956800
   83       -0.0228203000
   84       -0.0000000000
   85       -0.0000000000
   86        0.0000000000
   87       -0.0025425900
   88       -0.0046759400
   89       -0.0053198900
   90       -0.0000000000
   91        0.0000000000
   92       -0.0000000000
   93        0.0000000000
   94        0.0000000000
   95        0.0567279000
   96       -0.0000000000
   97       -0.0000000000
   98       -0.0442063100
   99       -0.0000000000
  100        0.0000000000
  101        0.0274968900
  102        0.0000000000
  103       -0.0000000000
  104        0.0000000000