[Molden Format]
[Atoms] Angs
F       1       9     0.00000000     0.00000000     4.00000000
F       2       9    -1.13930000     0.00000000     0.00000000
H       3       1     0.00000000     0.00000000     0.00000000
F       4       9     1.13930000     0.00000000     0.00000000
[GTO]
  1 0
s  8 1.00
   1.9500000000E+04   5.0700000000E-04
   2.9230000000E+03   3.9230000000E-03
   6.6450000000E+02   2.0200000000E-02
   1.8750000000E+02   7.9010000000E-02
   6.0620000000E+01   2.3043900000E-01
   2.1420000000E+01   4.3287200000E-01
   7.9500000000E+00   3.4996400000E-01
   8.8150000000E-01  -7.8920000000E-03
s  8 1.00
   1.9500000000E+04  -1.1700000000E-04
   2.9230000000E+03  -9.1200000000E-04
   6.6450000000E+02  -4.7170000000E-03
   1.8750000000E+02  -1.9086000000E-02
   6.0620000000E+01  -5.9655000000E-02
   2.1420000000E+01  -1.4001000000E-01
   7.9500000000E+00  -1.7678200000E-01
   8.8150000000E-01   6.0504300000E-01
s  1 1.00
   2.2570000000E+00   1.0000000000E+00
s  1 1.00
   3.0410000000E-01   1.0000000000E+00
s  1 1.00
   9.1580000000E-02   1.0000000000E+00
p  3 1.00
   4.3880000000E+01   1.6665000000E-02
   9.9260000000E+00   1.0447200000E-01
   2.9300000000E+00   3.1726000000E-01
p  1 1.00
   9.1320000000E-01   1.0000000000E+00
p  1 1.00
   2.6720000000E-01   1.0000000000E+00
p  1 1.00
   7.3610000000E-02   1.0000000000E+00
d  1 1.00
   3.1070000000E+00   1.0000000000E+00
d  1 1.00
   8.5500000000E-01   1.0000000000E+00
d  1 1.00
   2.9200000000E-01   1.0000000000E+00
f  1 1.00
   1.9170000000E+00   1.0000000000E+00
f  1 1.00
   7.2400000000E-01   1.0000000000E+00
 
  2 0
s  8 1.00
   1.9500000000E+04   5.0700000000E-04
   2.9230000000E+03   3.9230000000E-03
   6.6450000000E+02   2.0200000000E-02
   1.8750000000E+02   7.9010000000E-02
   6.0620000000E+01   2.3043900000E-01
   2.1420000000E+01   4.3287200000E-01
   7.9500000000E+00   3.4996400000E-01
   8.8150000000E-01  -7.8920000000E-03
s  8 1.00
   1.9500000000E+04  -1.1700000000E-04
   2.9230000000E+03  -9.1200000000E-04
   6.6450000000E+02  -4.7170000000E-03
   1.8750000000E+02  -1.9086000000E-02
   6.0620000000E+01  -5.9655000000E-02
   2.1420000000E+01  -1.4001000000E-01
   7.9500000000E+00  -1.7678200000E-01
   8.8150000000E-01   6.0504300000E-01
s  1 1.00
   2.2570000000E+00   1.0000000000E+00
s  1 1.00
   3.0410000000E-01   1.0000000000E+00
s  1 1.00
   9.1580000000E-02   1.0000000000E+00
p  3 1.00
   4.3880000000E+01   1.6665000000E-02
   9.9260000000E+00   1.0447200000E-01
   2.9300000000E+00   3.1726000000E-01
p  1 1.00
   9.1320000000E-01   1.0000000000E+00
p  1 1.00
   2.6720000000E-01   1.0000000000E+00
p  1 1.00
   7.3610000000E-02   1.0000000000E+00
d  1 1.00
   3.1070000000E+00   1.0000000000E+00
d  1 1.00
   8.5500000000E-01   1.0000000000E+00
d  1 1.00
   2.9200000000E-01   1.0000000000E+00
f  1 1.00
   1.9170000000E+00   1.0000000000E+00
f  1 1.00
   7.2400000000E-01   1.0000000000E+00
 
  3 0
s  3 1.00
   3.3870000000E+01   6.0680000000E-03
   5.0950000000E+00   4.5308000000E-02
   1.1590000000E+00   2.0282200000E-01
s  1 1.00
   3.2580000000E-01   1.0000000000E+00
s  1 1.00
   1.0270000000E-01   1.0000000000E+00
s  1 1.00
   2.5260000000E-02   1.0000000000E+00
p  1 1.00
   1.4070000000E+00   1.0000000000E+00
p  1 1.00
   3.8800000000E-01   1.0000000000E+00
p  1 1.00
   1.0200000000E-01   1.0000000000E+00
d  1 1.00
   1.0570000000E+00   1.0000000000E+00
d  1 1.00
   2.4700000000E-01   1.0000000000E+00
 
  4 0
s  8 1.00
   1.9500000000E+04   5.0700000000E-04
   2.9230000000E+03   3.9230000000E-03
   6.6450000000E+02   2.0200000000E-02
   1.8750000000E+02   7.9010000000E-02
   6.0620000000E+01   2.3043900000E-01
   2.1420000000E+01   4.3287200000E-01
   7.9500000000E+00   3.4996400000E-01
   8.8150000000E-01  -7.8920000000E-03
s  8 1.00
   1.9500000000E+04  -1.1700000000E-04
   2.9230000000E+03  -9.1200000000E-04
   6.6450000000E+02  -4.7170000000E-03
   1.8750000000E+02  -1.9086000000E-02
   6.0620000000E+01  -5.9655000000E-02
   2.1420000000E+01  -1.4001000000E-01
   7.9500000000E+00  -1.7678200000E-01
   8.8150000000E-01   6.0504300000E-01
s  1 1.00
   2.2570000000E+00   1.0000000000E+00
s  1 1.00
   3.0410000000E-01   1.0000000000E+00
s  1 1.00
   9.1580000000E-02   1.0000000000E+00
p  3 1.00
   4.3880000000E+01   1.6665000000E-02
   9.9260000000E+00   1.0447200000E-01
   2.9300000000E+00   3.1726000000E-01
p  1 1.00
   9.1320000000E-01   1.0000000000E+00
p  1 1.00
   2.6720000000E-01   1.0000000000E+00
p  1 1.00
   7.3610000000E-02   1.0000000000E+00
d  1 1.00
   3.1070000000E+00   1.0000000000E+00
d  1 1.00
   8.5500000000E-01   1.0000000000E+00
d  1 1.00
   2.9200000000E-01   1.0000000000E+00
f  1 1.00
   1.9170000000E+00   1.0000000000E+00
f  1 1.00
   7.2400000000E-01   1.0000000000E+00
 
 
[MO]
Ene=    -2.59966E+01
Spin= Alpha
Occup=   1.0000000000
   1      -0.00000000
   2      -0.00000000
   3       0.00000000
   4      -0.00000000
   5       0.00000000
   6      -0.00000328
   7       0.00000000
   8       0.00000000
   9       0.00001217
  10      -0.00000000
  11      -0.00000000
  12       0.00002801
  13      -0.00000000
  14       0.00000000
  15      -0.00005199
  16       0.00000000
  17      -0.00000000
  18       0.00000000
  19       0.00000000
  20       0.00000000
  21      -0.00000000
  22       0.00000456
  23       0.00000000
  24       0.00000000
  25       0.00000000
  26       0.00000000
  27       0.00000000
  28      -0.00001762
  29       0.00000000
  30       0.00000000
  31      -0.00000000
  32       0.00000000
  33       0.00000000
  34       0.00003285
  35       0.00000000
  36      -0.00000790
  37       0.00000000
  38       0.00000000
  39      -0.00000353
  40       0.00000000
  41       0.00000000
  42       0.00000037
  43       0.00000000
  44       0.00000000
  45      -0.00000000
  46      -0.00000668
  47       0.00000000
  48       0.00000000
  49      -0.00000301
  50       0.00000000
  51      -0.00000000
  52      -0.00001146
  53       0.00000000
  54      -0.00000000
  55      -0.00000000
  56       0.68673653
  57      -0.00731812
  58       0.03498048
  59      -0.01291619
  60      -0.00302318
  61       0.00053590
  62      -0.00000000
  63       0.00004190
  64      -0.00104908
  65       0.00000000
  66      -0.00008106
  67      -0.00036491
  68       0.00000000
  69      -0.00002689
  70      -0.00059229
  71       0.00000000
  72      -0.00002031
  73       0.00200941
  74       0.00202551
  75       0.00202437
  76      -0.00000000
  77      -0.00000059
  78       0.00000000
  79       0.00601543
  80       0.00599416
  81       0.00599600
  82       0.00000000
  83       0.00000168
  84       0.00000000
  85       0.00230219
  86       0.00237266
  87       0.00236931
  88       0.00000000
  89      -0.00001568
  90       0.00000000
  91       0.00041371
  92      -0.00000000
  93       0.00002825
  94       0.00016345
  95      -0.00000000
  96       0.00001345
  97       0.00016350
  98      -0.00000000
  99       0.00001248
 100       0.00000000
 101       0.00039243
 102      -0.00000000
 103       0.00002768
 104       0.00019118
 105       0.00000000
 106       0.00000858
 107       0.00019125
 108      -0.00000000
 109       0.00001259
 110       0.00000000
 111       0.00000000
 112      -0.00000000
 113       0.00000000
 114       0.00000000
 115       0.00002142
 116       0.00000000
 117      -0.00000000
 118      -0.00011340
 119      -0.00000000
 120       0.00000000
 121      -0.00100227
 122      -0.00000000
 123      -0.00000000
 124       0.00000000
 125       0.00000000
 126       0.00000000
 127       0.00000000
 128      -0.00000207
 129       0.00000000
 130      -0.00000000
 131      -0.00000000
 132      -0.00000000
 133       0.00000000
 134      -0.00002895
 135      -0.00000000
 136      -0.68673646
 137       0.00731812
 138      -0.03498048
 139       0.01291619
 140       0.00302318
 141       0.00053590
 142      -0.00000000
 143      -0.00004190
 144      -0.00104908
 145       0.00000000
 146       0.00008106
 147      -0.00036491
 148      -0.00000000
 149       0.00002689
 150      -0.00059229
 151      -0.00000000
 152       0.00002031
 153      -0.00200941
 154      -0.00202551
 155      -0.00202437
 156       0.00000000
 157      -0.00000059
 158      -0.00000000
 159      -0.00601543
 160      -0.00599416
 161      -0.00599600
 162      -0.00000000
 163       0.00000168
 164      -0.00000000
 165      -0.00230219
 166      -0.00237266
 167      -0.00236931
 168       0.00000000
 169      -0.00001568
 170       0.00000000
 171       0.00041371
 172      -0.00000000
 173      -0.00002825
 174       0.00016345
 175       0.00000000
 176      -0.00001345
 177       0.00016350
 178      -0.00000000
 179      -0.00001248
 180       0.00000000
 181       0.00039243
 182       0.00000000
 183      -0.00002768
 184       0.00019118
 185      -0.00000000
 186      -0.00000858
 187       0.00019125
 188       0.00000000
 189      -0.00001259
 190       0.00000000
Ene=    -2.59966E+01
Spin= Alpha
Occup=   1.0000000000
   1       0.00000344
   2       0.00000258
   3      -0.00001014
   4       0.00005520
   5      -0.00000783
   6      -0.00000000
   7       0.00000000
   8      -0.00000131
   9       0.00000000
  10      -0.00000000
  11       0.00000872
  12       0.00000000
  13      -0.00000000
  14      -0.00001747
  15      -0.00000000
  16       0.00000000
  17       0.00003572
  18      -0.00000209
  19      -0.00000064
  20      -0.00000389
  21      -0.00000000
  22       0.00000000
  23      -0.00000000
  24      -0.00001438
  25      -0.00001990
  26      -0.00000805
  27       0.00000000
  28      -0.00000000
  29      -0.00000000
  30      -0.00000495
  31       0.00000478
  32      -0.00001395
  33       0.00000000
  34       0.00000000
  35      -0.00000000
  36      -0.00000000
  37       0.00000000
  38      -0.00000199
  39      -0.00000000
  40       0.00000000
  41      -0.00000252
  42       0.00000000
  43       0.00000000
  44      -0.00000093
  45      -0.00000000
  46      -0.00000000
  47       0.00000000
  48      -0.00000046
  49      -0.00000000
  50       0.00000000
  51       0.00000355
  52      -0.00000000
  53       0.00000000
  54       0.00000017
  55       0.00000000
  56      -0.68696297
  57       0.00689482
  58      -0.03528854
  59      -0.00681325
  60       0.00449178
  61      -0.00059707
  62       0.00000000
  63      -0.00004393
  64       0.00166332
  65      -0.00000000
  66       0.00009104
  67      -0.01224741
  68       0.00000000
  69       0.00001132
  70       0.00084455
  71      -0.00000000
  72       0.00000736
  73      -0.00204860
  74      -0.00202988
  75      -0.00202881
  76       0.00000000
  77       0.00000037
  78       0.00000000
  79      -0.00598319
  80      -0.00639648
  81      -0.00639798
  82       0.00000000
  83      -0.00000037
  84      -0.00000000
  85      -0.00779854
  86      -0.00477500
  87      -0.00477372
  88       0.00000000
  89      -0.00000017
  90       0.00000000
  91      -0.00043045
  92       0.00000000
  93      -0.00003276
  94      -0.00024733
  95       0.00000000
  96      -0.00001418
  97      -0.00024693
  98       0.00000000
  99      -0.00001444
 100      -0.00000000
 101      -0.00011787
 102       0.00000000
 103      -0.00003014
 104      -0.00008827
 105       0.00000000
 106      -0.00001434
 107      -0.00008942
 108       0.00000000
 109      -0.00001383
 110      -0.00000000
 111      -0.00080659
 112       0.03559226
 113      -0.01063771
 114      -0.00026730
 115       0.00000000
 116      -0.00000000
 117       0.00000133
 118      -0.00000000
 119       0.00000000
 120      -0.00000023
 121      -0.00000000
 122       0.00000000
 123       0.00000105
 124      -0.00098589
 125      -0.00034396
 126      -0.00034571
 127       0.00000000
 128      -0.00000000
 129      -0.00000000
 130       0.02176385
 131       0.00423435
 132       0.00424087
 133       0.00000000
 134      -0.00000000
 135      -0.00000000
 136      -0.68696304
 137       0.00689482
 138      -0.03528854
 139      -0.00681325
 140       0.00449178
 141       0.00059707
 142       0.00000000
 143      -0.00004393
 144      -0.00166332
 145      -0.00000000
 146       0.00009104
 147       0.01224741
 148      -0.00000000
 149       0.00001132
 150      -0.00084455
 151      -0.00000000
 152       0.00000736
 153      -0.00204860
 154      -0.00202988
 155      -0.00202881
 156       0.00000000
 157      -0.00000037
 158       0.00000000
 159      -0.00598319
 160      -0.00639648
 161      -0.00639798
 162      -0.00000000
 163       0.00000037
 164      -0.00000000
 165      -0.00779854
 166      -0.00477500
 167      -0.00477372
 168       0.00000000
 169       0.00000017
 170       0.00000000
 171       0.00043045
 172       0.00000000
 173      -0.00003276
 174       0.00024733
 175       0.00000000
 176      -0.00001418
 177       0.00024693
 178       0.00000000
 179      -0.00001444
 180       0.00000000
 181       0.00011787
 182       0.00000000
 183      -0.00003014
 184       0.00008827
 185      -0.00000000
 186      -0.00001434
 187       0.00008942
 188       0.00000000
 189      -0.00001383
 190      -0.00000000
Ene=    -2.59452E+01
Spin= Alpha
Occup=   1.0000000000
   1       0.97111212
   2      -0.01057943
   3       0.04911072
   4      -0.01677782
   5      -0.00141690
   6      -0.00000000
   7       0.00000000
   8      -0.00011986
   9       0.00000000
  10       0.00000000
  11       0.00020029
  12       0.00000000
  13       0.00000000
  14      -0.00004952
  15      -0.00000000
  16      -0.00000000
  17       0.00009804
  18       0.00284171
  19       0.00284186
  20       0.00283932
  21       0.00000000
  22      -0.00000000
  23      -0.00000000
  24       0.00812173
  25       0.00811971
  26       0.00812891
  27       0.00000000
  28       0.00000000
  29      -0.00000000
  30       0.00290541
  31       0.00290862
  32       0.00289262
  33       0.00000000
  34      -0.00000000
  35      -0.00000000
  36       0.00000000
  37      -0.00000000
  38      -0.00006316
  39      -0.00000000
  40       0.00000000
  41      -0.00002849
  42      -0.00000000
  43      -0.00000000
  44      -0.00002819
  45       0.00000000
  46      -0.00000000
  47      -0.00000000
  48      -0.00004260
  49      -0.00000000
  50       0.00000000
  51      -0.00001833
  52      -0.00000000
  53      -0.00000000
  54      -0.00001905
  55      -0.00000000
  56       0.00000461
  57       0.00000486
  58       0.00001318
  59      -0.00118926
  60       0.00021938
  61      -0.00000567
  62      -0.00000000
  63      -0.00000073
  64       0.00002698
  65       0.00000000
  66      -0.00000050
  67      -0.00059423
  68      -0.00000000
  69       0.00002395
  70       0.00009802
  71      -0.00000000
  72       0.00010494
  73       0.00000194
  74      -0.00000095
  75       0.00000421
  76       0.00000000
  77       0.00000250
  78       0.00000000
  79       0.00001509
  80       0.00002832
  81       0.00000807
  82      -0.00000000
  83      -0.00001079
  84       0.00000000
  85      -0.00023323
  86      -0.00009587
  87      -0.00005895
  88      -0.00000000
  89       0.00004468
  90      -0.00000000
  91      -0.00000924
  92      -0.00000000
  93      -0.00000030
  94      -0.00000490
  95      -0.00000000
  96      -0.00000305
  97      -0.00000535
  98      -0.00000000
  99       0.00000201
 100       0.00000000
 101      -0.00002083
 102      -0.00000000
 103      -0.00000725
 104      -0.00000320
 105      -0.00000000
 106       0.00000715
 107      -0.00000209
 108      -0.00000000
 109      -0.00000794
 110       0.00000000
 111      -0.00001095
 112       0.00179719
 113      -0.00088038
 114       0.00013605
 115       0.00000000
 116       0.00000000
 117       0.00000186
 118      -0.00000000
 119      -0.00000000
 120      -0.00005056
 121      -0.00000000
 122      -0.00000000
 123      -0.00010682
 124       0.00000085
 125       0.00000073
 126      -0.00000705
 127      -0.00000000
 128       0.00000000
 129       0.00000000
 130       0.00116033
 131       0.00023363
 132       0.00024782
 133      -0.00000000
 134       0.00000000
 135       0.00000000
 136       0.00000461
 137       0.00000486
 138       0.00001318
 139      -0.00118926
 140       0.00021938
 141       0.00000567
 142      -0.00000000
 143      -0.00000073
 144      -0.00002698
 145       0.00000000
 146      -0.00000050
 147       0.00059423
 148       0.00000000
 149       0.00002395
 150      -0.00009802
 151      -0.00000000
 152       0.00010494
 153       0.00000194
 154      -0.00000095
 155       0.00000421
 156       0.00000000
 157      -0.00000250
 158      -0.00000000
 159       0.00001509
 160       0.00002832
 161       0.00000807
 162      -0.00000000
 163       0.00001079
 164      -0.00000000
 165      -0.00023323
 166      -0.00009587
 167      -0.00005895
 168      -0.00000000
 169      -0.00004468
 170      -0.00000000
 171       0.00000924
 172      -0.00000000
 173      -0.00000030
 174       0.00000490
 175      -0.00000000
 176      -0.00000305
 177       0.00000535
 178      -0.00000000
 179       0.00000201
 180      -0.00000000
 181       0.00002083
 182      -0.00000000
 183      -0.00000725
 184       0.00000320
 185      -0.00000000
 186       0.00000715
 187       0.00000209
 188      -0.00000000
 189      -0.00000794
 190       0.00000000
Ene=    -1.30262E+00
Spin= Alpha
Occup=   1.0000000000
   1      -0.00010736
   2       0.00022528
   3      -0.00006786
   4       0.00131433
   5       0.00038622
   6       0.00000000
   7       0.00000000
   8      -0.00007690
   9      -0.00000000
  10      -0.00000000
  11       0.00005345
  12      -0.00000000
  13      -0.00000000
  14       0.00034587
  15      -0.00000000
  16      -0.00000000
  17       0.00018716
  18       0.00000446
  19       0.00000610
  20      -0.00001688
  21       0.00000000
  22       0.00000000
  23       0.00000000
  24      -0.00025177
  25      -0.00026238
  26      -0.00010819
  27      -0.00000000
  28      -0.00000000
  29      -0.00000000
  30      -0.00019441
  31      -0.00016518
  32      -0.00058556
  33      -0.00000000
  34       0.00000000
  35       0.00000000
  36       0.00000000
  37       0.00000000
  38      -0.00007234
  39       0.00000000
  40       0.00000000
  41      -0.00001996
  42       0.00000000
  43       0.00000000
  44      -0.00001792
  45      -0.00000000
  46       0.00000000
  47       0.00000000
  48      -0.00015658
  49       0.00000000
  50       0.00000000
  51      -0.00010639
  52      -0.00000000
  53       0.00000000
  54      -0.00011242
  55       0.00000000
  56      -0.00588504
  57       0.37760704
  58       0.10746386
  59       0.33925817
  60       0.01324733
  61       0.01820660
  62      -0.00000000
  63       0.00051028
  64       0.02318217
  65       0.00000000
  66       0.00070837
  67       0.05860748
  68      -0.00000000
  69       0.00133504
  70      -0.00210947
  71       0.00000000
  72       0.00002087
  73       0.00187464
  74       0.00029915
  75       0.00030530
  76       0.00000000
  77       0.00001121
  78      -0.00000000
  79       0.00286425
  80      -0.00337331
  81      -0.00326316
  82      -0.00000000
  83       0.00007938
  84      -0.00000000
  85       0.01715417
  86       0.00361908
  87       0.00390980
  88      -0.00000000
  89       0.00022110
  90       0.00000000
  91       0.00143549
  92       0.00000000
  93       0.00001977
  94       0.00002694
  95       0.00000000
  96       0.00001484
  97       0.00002602
  98      -0.00000000
  99       0.00001366
 100      -0.00000000
 101       0.00105518
 102      -0.00000000
 103       0.00010809
 104      -0.00008611
 105      -0.00000000
 106       0.00004163
 107      -0.00004934
 108      -0.00000000
 109       0.00001668
 110       0.00000000
 111       0.06274031
 112      -0.09784241
 113       0.03156410
 114      -0.00326269
 115      -0.00000000
 116      -0.00000000
 117       0.00005694
 118       0.00000000
 119      -0.00000000
 120       0.00025047
 121      -0.00000000
 122      -0.00000000
 123       0.00051186
 124       0.00779203
 125       0.00035525
 126       0.00037030
 127      -0.00000000
 128       0.00000000
 129      -0.00000000
 130      -0.07871902
 131      -0.01717367
 132      -0.01688560
 133      -0.00000000
 134       0.00000000
 135       0.00000000
 136      -0.00588504
 137       0.37760704
 138       0.10746386
 139       0.33925817
 140       0.01324733
 141      -0.01820660
 142      -0.00000000
 143       0.00051028
 144      -0.02318217
 145       0.00000000
 146       0.00070837
 147      -0.05860748
 148       0.00000000
 149       0.00133504
 150       0.00210947
 151       0.00000000
 152       0.00002087
 153       0.00187464
 154       0.00029915
 155       0.00030530
 156       0.00000000
 157      -0.00001121
 158      -0.00000000
 159       0.00286425
 160      -0.00337331
 161      -0.00326316
 162      -0.00000000
 163      -0.00007938
 164       0.00000000
 165       0.01715417
 166       0.00361908
 167       0.00390980
 168      -0.00000000
 169      -0.00022110
 170      -0.00000000
 171      -0.00143549
 172      -0.00000000
 173       0.00001977
 174      -0.00002694
 175      -0.00000000
 176       0.00001484
 177      -0.00002602
 178       0.00000000
 179       0.00001366
 180      -0.00000000
 181      -0.00105518
 182      -0.00000000
 183       0.00010809
 184       0.00008611
 185      -0.00000000
 186       0.00004163
 187       0.00004934
 188      -0.00000000
 189       0.00001668
 190      -0.00000000
Ene=    -1.25497E+00
Spin= Alpha
Occup=   1.0000000000
   1      -0.00000000
   2      -0.00000000
   3      -0.00000000
   4       0.00000000
   5       0.00000000
   6       0.00000681
   7       0.00000000
   8      -0.00000000
   9       0.00002808
  10       0.00000000
  11       0.00000000
  12       0.00007636
  13       0.00000000
  14       0.00000000
  15      -0.00026755
  16       0.00000000
  17       0.00000000
  18       0.00000000
  19       0.00000000
  20      -0.00000000
  21       0.00000000
  22       0.00000740
  23       0.00000000
  24      -0.00000000
  25      -0.00000000
  26      -0.00000000
  27       0.00000000
  28      -0.00004946
  29      -0.00000000
  30      -0.00000000
  31      -0.00000000
  32      -0.00000000
  33      -0.00000000
  34       0.00013378
  35       0.00000000
  36      -0.00001181
  37      -0.00000000
  38      -0.00000000
  39      -0.00000537
  40      -0.00000000
  41      -0.00000000
  42       0.00000358
  43      -0.00000000
  44      -0.00000000
  45       0.00000000
  46      -0.00000477
  47       0.00000000
  48      -0.00000000
  49      -0.00000188
  50      -0.00000000
  51      -0.00000000
  52      -0.00002787
  53      -0.00000000
  54      -0.00000000
  55      -0.00000000
  56       0.00550690
  57      -0.39556935
  58      -0.11163078
  59      -0.27414691
  60      -0.03562827
  61      -0.00529554
  62       0.00000000
  63      -0.00052393
  64      -0.00898562
  65      -0.00000000
  66      -0.00074740
  67       0.00287141
  68       0.00000000
  69      -0.00151282
  70      -0.00442052
  71       0.00000000
  72      -0.00023203
  73      -0.00123167
  74      -0.00035493
  75      -0.00036250
  76      -0.00000000
  77      -0.00000641
  78       0.00000000
  79       0.00057679
  80       0.00403140
  81       0.00392832
  82      -0.00000000
  83      -0.00004738
  84       0.00000000
  85       0.00842733
  86       0.00382100
  87       0.00342444
  88       0.00000000
  89      -0.00024341
  90      -0.00000000
  91      -0.00100268
  92       0.00000000
  93      -0.00001438
  94       0.00011012
  95       0.00000000
  96      -0.00000607
  97       0.00011860
  98       0.00000000
  99      -0.00001090
 100       0.00000000
 101       0.00052161
 102      -0.00000000
 103      -0.00008128
 104       0.00030951
 105       0.00000000
 106      -0.00003178
 107       0.00025140
 108      -0.00000000
 109      -0.00000495
 110      -0.00000000
 111       0.00000000
 112      -0.00000000
 113       0.00000000
 114      -0.00000000
 115       0.01240880
 116       0.00000000
 117       0.00000000
 118       0.02772559
 119      -0.00000000
 120       0.00000000
 121      -0.00981722
 122      -0.00000000
 123       0.00000000
 124       0.00000000
 125       0.00000000
 126       0.00000000
 127       0.00000000
 128       0.00002321
 129       0.00000000
 130      -0.00000000
 131      -0.00000000
 132      -0.00000000
 133       0.00000000
 134       0.00009157
 135       0.00000000
 136      -0.00550690
 137       0.39556935
 138       0.11163078
 139       0.27414691
 140       0.03562827
 141      -0.00529554
 142      -0.00000000
 143       0.00052393
 144      -0.00898562
 145       0.00000000
 146       0.00074740
 147       0.00287141
 148       0.00000000
 149       0.00151282
 150      -0.00442052
 151      -0.00000000
 152       0.00023203
 153       0.00123167
 154       0.00035493
 155       0.00036250
 156      -0.00000000
 157      -0.00000641
 158      -0.00000000
 159      -0.00057679
 160      -0.00403140
 161      -0.00392832
 162      -0.00000000
 163      -0.00004738
 164       0.00000000
 165      -0.00842733
 166      -0.00382100
 167      -0.00342444
 168       0.00000000
 169      -0.00024341
 170      -0.00000000
 171      -0.00100268
 172      -0.00000000
 173       0.00001438
 174       0.00011012
 175      -0.00000000
 176       0.00000607
 177       0.00011860
 178      -0.00000000
 179       0.00001090
 180      -0.00000000
 181       0.00052161
 182      -0.00000000
 183       0.00008128
 184       0.00030951
 185      -0.00000000
 186       0.00003178
 187       0.00025140
 188      -0.00000000
 189       0.00000495
 190      -0.00000000
Ene=    -1.20014E+00
Spin= Alpha
Occup=   1.0000000000
   1      -0.00950445
   2       0.55068728
   3       0.15774885
   4       0.39893979
   5       0.03422276
   6       0.00000000
   7      -0.00000000
   8      -0.00189558
   9       0.00000000
  10       0.00000000
  11      -0.00257412
  12       0.00000000
  13       0.00000000
  14      -0.00459350
  15       0.00000000
  16      -0.00000000
  17      -0.00086560
  18       0.00146865
  19       0.00146967
  20       0.00148715
  21      -0.00000000
  22      -0.00000000
  23       0.00000000
  24      -0.00257951
  25      -0.00258548
  26      -0.00231098
  27      -0.00000000
  28      -0.00000000
  29       0.00000000
  30      -0.00215522
  31      -0.00209863
  32      -0.00133322
  33       0.00000000
  34      -0.00000000
  35      -0.00000000
  36       0.00000000
  37      -0.00000000
  38      -0.00011753
  39       0.00000000
  40      -0.00000000
  41      -0.00005931
  42       0.00000000
  43      -0.00000000
  44      -0.00005539
  45      -0.00000000
  46       0.00000000
  47      -0.00000000
  48      -0.00047447
  49       0.00000000
  50      -0.00000000
  51      -0.00015810
  52       0.00000000
  53      -0.00000000
  54      -0.00017591
  55       0.00000000
  56      -0.00002881
  57      -0.00047765
  58      -0.00017719
  59       0.00347060
  60      -0.00143933
  61      -0.00000187
  62       0.00000000
  63       0.00005095
  64      -0.00005759
  65       0.00000000
  66       0.00002033
  67       0.00173386
  68       0.00000000
  69      -0.00031066
  70      -0.00058834
  71       0.00000000
  72      -0.00069537
  73      -0.00000172
  74       0.00000496
  75      -0.00000754
  76       0.00000000
  77      -0.00000647
  78      -0.00000000
  79      -0.00007095
  80      -0.00010155
  81      -0.00001244
  82       0.00000000
  83       0.00004851
  84      -0.00000000
  85       0.00071089
  86       0.00028921
  87       0.00004085
  88       0.00000000
  89      -0.00024434
  90      -0.00000000
  91       0.00001312
  92       0.00000000
  93       0.00002432
  94       0.00000661
  95      -0.00000000
  96       0.00001747
  97       0.00001173
  98      -0.00000000
  99       0.00000404
 100       0.00000000
 101       0.00007779
 102      -0.00000000
 103       0.00010599
 104       0.00001618
 105       0.00000000
 106       0.00001476
 107       0.00000088
 108      -0.00000000
 109       0.00006722
 110      -0.00000000
 111      -0.00007016
 112      -0.00582921
 113       0.00509680
 114      -0.00085704
 115       0.00000000
 116      -0.00000000
 117      -0.00000051
 118      -0.00000000
 119       0.00000000
 120       0.00023697
 121      -0.00000000
 122      -0.00000000
 123       0.00079620
 124      -0.00004390
 125      -0.00001634
 126       0.00000337
 127       0.00000000
 128       0.00000000
 129       0.00000000
 130      -0.00372654
 131      -0.00098034
 132      -0.00099256
 133       0.00000000
 134       0.00000000
 135       0.00000000
 136      -0.00002881
 137      -0.00047765
 138      -0.00017719
 139       0.00347060
 140      -0.00143933
 141       0.00000187
 142      -0.00000000
 143       0.00005095
 144       0.00005759
 145       0.00000000
 146       0.00002033
 147      -0.00173386
 148      -0.00000000
 149      -0.00031066
 150       0.00058834
 151      -0.00000000
 152      -0.00069537
 153      -0.00000172
 154       0.00000496
 155      -0.00000754
 156      -0.00000000
 157       0.00000647
 158       0.00000000
 159      -0.00007095
 160      -0.00010155
 161      -0.00001244
 162       0.00000000
 163      -0.00004851
 164      -0.00000000
 165       0.00071089
 166       0.00028921
 167       0.00004085
 168       0.00000000
 169       0.00024434
 170       0.00000000
 171      -0.00001312
 172      -0.00000000
 173       0.00002432
 174      -0.00000661
 175      -0.00000000
 176       0.00001747
 177      -0.00001173
 178      -0.00000000
 179       0.00000404
 180      -0.00000000
 181      -0.00007779