[Molden Format]
[Title]
 Molden2AIM, Version 3.1.0 (02/25/2015)           Time: Wed Apr 23 15:35:18 2025

[Atoms] Angs
F       1       9     0.00000000     0.00000000     4.00000000
F       2       9    -1.13930000     0.00000000     0.00000000
H       3       1     0.00000000     0.00000000     0.00000000
F       4       9     1.13930000     0.00000000     0.00000000
[GTO]
    1 0
 S   8 1.0
    0.1950000000D+05      0.5193715996D-03
    0.2923000000D+04      0.4018727387D-02
    0.6645000000D+03      0.2069291186D-01
    0.1875000000D+03      0.8093796861D-01
    0.6062000000D+02      0.2360620750D+00
    0.2142000000D+02      0.4434347595D+00
    0.7950000000D+01      0.3585036736D+00
    0.8815000000D+00     -0.8084577247D-02
 S   8 1.0
    0.1950000000D+05     -0.1995911530D-03
    0.2923000000D+04     -0.1555787449D-02
    0.6645000000D+03     -0.8046764688D-02
    0.1875000000D+03     -0.3255894654D-01
    0.6062000000D+02     -0.1017658994D+00
    0.2142000000D+02     -0.2388440797D+00
    0.7950000000D+01     -0.3015737026D+00
    0.8815000000D+00      0.1032147265D+01
 S   1 1.0
    0.2257000000D+01      0.1000000000D+01
 S   1 1.0
    0.3041000000D+00      0.1000000000D+01
 S   1 1.0
    0.9158000000D-01      0.1000000000D+01
 P   3 1.0
    0.4388000000D+02      0.4190462069D-01
    0.9926000000D+01      0.2626978417D+00
    0.2930000000D+01      0.7977593735D+00
 P   1 1.0
    0.9132000000D+00      0.1000000000D+01
 P   1 1.0
    0.2672000000D+00      0.1000000000D+01
 P   1 1.0
    0.7361000000D-01      0.1000000000D+01
 D   1 1.0
    0.3107000000D+01      0.1000000000D+01
 D   1 1.0
    0.8550000000D+00      0.1000000000D+01
 D   1 1.0
    0.2920000000D+00      0.1000000000D+01
 F   1 1.0
    0.1917000000D+01      0.1000000000D+01
 F   1 1.0
    0.7240000000D+00      0.1000000000D+01

    2 0
 S   8 1.0
    0.1950000000D+05      0.5193715996D-03
    0.2923000000D+04      0.4018727387D-02
    0.6645000000D+03      0.2069291186D-01
    0.1875000000D+03      0.8093796861D-01
    0.6062000000D+02      0.2360620750D+00
    0.2142000000D+02      0.4434347595D+00
    0.7950000000D+01      0.3585036736D+00
    0.8815000000D+00     -0.8084577247D-02
 S   8 1.0
    0.1950000000D+05     -0.1995911530D-03
    0.2923000000D+04     -0.1555787449D-02
    0.6645000000D+03     -0.8046764688D-02
    0.1875000000D+03     -0.3255894654D-01
    0.6062000000D+02     -0.1017658994D+00
    0.2142000000D+02     -0.2388440797D+00
    0.7950000000D+01     -0.3015737026D+00
    0.8815000000D+00      0.1032147265D+01
 S   1 1.0
    0.2257000000D+01      0.1000000000D+01
 S   1 1.0
    0.3041000000D+00      0.1000000000D+01
 S   1 1.0
    0.9158000000D-01      0.1000000000D+01
 P   3 1.0
    0.4388000000D+02      0.4190462069D-01
    0.9926000000D+01      0.2626978417D+00
    0.2930000000D+01      0.7977593735D+00
 P   1 1.0
    0.9132000000D+00      0.1000000000D+01
 P   1 1.0
    0.2672000000D+00      0.1000000000D+01
 P   1 1.0
    0.7361000000D-01      0.1000000000D+01
 D   1 1.0
    0.3107000000D+01      0.1000000000D+01
 D   1 1.0
    0.8550000000D+00      0.1000000000D+01
 D   1 1.0
    0.2920000000D+00      0.1000000000D+01
 F   1 1.0
    0.1917000000D+01      0.1000000000D+01
 F   1 1.0
    0.7240000000D+00      0.1000000000D+01

    3 0
 S   3 1.0
    0.3387000000D+02      0.2549486323D-01
    0.5095000000D+01      0.1903627659D+00
    0.1159000000D+01      0.8521620222D+00
 S   1 1.0
    0.3258000000D+00      0.1000000000D+01
 S   1 1.0
    0.1027000000D+00      0.1000000000D+01
 S   1 1.0
    0.2526000000D-01      0.1000000000D+01
 P   1 1.0
    0.1407000000D+01      0.1000000000D+01
 P   1 1.0
    0.3880000000D+00      0.1000000000D+01
 P   1 1.0
    0.1020000000D+00      0.1000000000D+01
 D   1 1.0
    0.1057000000D+01      0.1000000000D+01
 D   1 1.0
    0.2470000000D+00      0.1000000000D+01

    4 0
 S   8 1.0
    0.1950000000D+05      0.5193715996D-03
    0.2923000000D+04      0.4018727387D-02
    0.6645000000D+03      0.2069291186D-01
    0.1875000000D+03      0.8093796861D-01
    0.6062000000D+02      0.2360620750D+00
    0.2142000000D+02      0.4434347595D+00
    0.7950000000D+01      0.3585036736D+00
    0.8815000000D+00     -0.8084577247D-02
 S   8 1.0
    0.1950000000D+05     -0.1995911530D-03
    0.2923000000D+04     -0.1555787449D-02
    0.6645000000D+03     -0.8046764688D-02
    0.1875000000D+03     -0.3255894654D-01
    0.6062000000D+02     -0.1017658994D+00
    0.2142000000D+02     -0.2388440797D+00
    0.7950000000D+01     -0.3015737026D+00
    0.8815000000D+00      0.1032147265D+01
 S   1 1.0
    0.2257000000D+01      0.1000000000D+01
 S   1 1.0
    0.3041000000D+00      0.1000000000D+01
 S   1 1.0
    0.9158000000D-01      0.1000000000D+01
 P   3 1.0
    0.4388000000D+02      0.4190462069D-01
    0.9926000000D+01      0.2626978417D+00
    0.2930000000D+01      0.7977593735D+00
 P   1 1.0
    0.9132000000D+00      0.1000000000D+01
 P   1 1.0
    0.2672000000D+00      0.1000000000D+01
 P   1 1.0
    0.7361000000D-01      0.1000000000D+01
 D   1 1.0
    0.3107000000D+01      0.1000000000D+01
 D   1 1.0
    0.8550000000D+00      0.1000000000D+01
 D   1 1.0
    0.2920000000D+00      0.1000000000D+01
 F   1 1.0
    0.1917000000D+01      0.1000000000D+01
 F   1 1.0
    0.7240000000D+00      0.1000000000D+01


[MO]
 Ene=        -25.99660000
 Spin= Alpha
 Occup=        1.00000000
    1        0.0000000000
    2        0.0000000000
    3       -0.0000000000
    4        0.0000000000
    5       -0.0000000000
    6        0.0000032800
    7       -0.0000000000
    8       -0.0000000000
    9       -0.0000121700
   10        0.0000000000
   11        0.0000000000
   12       -0.0000280100
   13        0.0000000000
   14       -0.0000000000
   15        0.0000519900
   16       -0.0000000000
   17        0.0000000000
   18       -0.0000000000
   19       -0.0000000000
   20       -0.0000000000
   21        0.0000000000
   22       -0.0000045600
   23       -0.0000000000
   24       -0.0000000000
   25       -0.0000000000
   26       -0.0000000000
   27       -0.0000000000
   28        0.0000176200
   29       -0.0000000000
   30       -0.0000000000
   31        0.0000000000
   32       -0.0000000000
   33       -0.0000000000
   34       -0.0000328500
   35       -0.0000000000
   36        0.0000079000
   37       -0.0000000000
   38       -0.0000000000
   39        0.0000035300
   40       -0.0000000000
   41       -0.0000000000
   42       -0.0000003700
   43       -0.0000000000
   44       -0.0000000000
   45        0.0000000000
   46        0.0000066800
   47       -0.0000000000
   48       -0.0000000000
   49        0.0000030100
   50       -0.0000000000
   51        0.0000000000
   52        0.0000114600
   53       -0.0000000000
   54        0.0000000000
   55        0.0000000000
   56       -0.6867365300
   57        0.0073181200
   58       -0.0349804800
   59        0.0129161900
   60        0.0030231800
   61       -0.0005359000
   62        0.0000000000
   63       -0.0000419000
   64        0.0010490800
   65       -0.0000000000
   66        0.0000810600
   67        0.0003649100
   68       -0.0000000000
   69        0.0000268900
   70        0.0005922900
   71       -0.0000000000
   72        0.0000203100
   73       -0.0020094100
   74       -0.0020255100
   75       -0.0020243700
   76        0.0000000000
   77        0.0000005900
   78       -0.0000000000
   79       -0.0060154300
   80       -0.0059941600
   81       -0.0059960000
   82       -0.0000000000
   83       -0.0000016800
   84       -0.0000000000
   85       -0.0023021900
   86       -0.0023726600
   87       -0.0023693100
   88       -0.0000000000
   89        0.0000156800
   90       -0.0000000000
   91       -0.0004137100
   92        0.0000000000
   93       -0.0000282500
   94       -0.0001634500
   95        0.0000000000
   96       -0.0000134500
   97       -0.0001635000
   98        0.0000000000
   99       -0.0000124800
  100       -0.0000000000
  101       -0.0003924300
  102        0.0000000000
  103       -0.0000276800
  104       -0.0001911800
  105       -0.0000000000
  106       -0.0000085800
  107       -0.0001912500
  108        0.0000000000
  109       -0.0000125900
  110       -0.0000000000
  111       -0.0000000000
  112        0.0000000000
  113       -0.0000000000
  114       -0.0000000000
  115       -0.0000214200
  116       -0.0000000000
  117        0.0000000000
  118        0.0001134000
  119        0.0000000000
  120       -0.0000000000
  121        0.0010022700
  122        0.0000000000
  123        0.0000000000
  124       -0.0000000000
  125       -0.0000000000
  126       -0.0000000000
  127       -0.0000000000
  128        0.0000020700
  129       -0.0000000000
  130        0.0000000000
  131        0.0000000000
  132        0.0000000000
  133       -0.0000000000
  134        0.0000289500
  135        0.0000000000
  136        0.6867364600
  137       -0.0073181200
  138        0.0349804800
  139       -0.0129161900
  140       -0.0030231800
  141       -0.0005359000
  142        0.0000000000
  143        0.0000419000
  144        0.0010490800
  145       -0.0000000000
  146       -0.0000810600
  147        0.0003649100
  148        0.0000000000
  149       -0.0000268900
  150        0.0005922900
  151        0.0000000000
  152       -0.0000203100
  153        0.0020094100
  154        0.0020255100
  155        0.0020243700
  156       -0.0000000000
  157        0.0000005900
  158        0.0000000000
  159        0.0060154300
  160        0.0059941600
  161        0.0059960000
  162        0.0000000000
  163       -0.0000016800
  164        0.0000000000
  165        0.0023021900
  166        0.0023726600
  167        0.0023693100
  168       -0.0000000000
  169        0.0000156800
  170       -0.0000000000
  171       -0.0004137100
  172        0.0000000000
  173        0.0000282500
  174       -0.0001634500
  175       -0.0000000000
  176        0.0000134500
  177       -0.0001635000
  178        0.0000000000
  179        0.0000124800
  180       -0.0000000000
  181       -0.0003924300
  182       -0.0000000000
  183        0.0000276800
  184       -0.0001911800
  185        0.0000000000
  186        0.0000085800
  187       -0.0001912500
  188       -0.0000000000
  189        0.0000125900
  190       -0.0000000000
 Ene=        -25.99660000
 Spin= Alpha
 Occup=        1.00000000
    1        0.0000034400
    2        0.0000025800
    3       -0.0000101400
    4        0.0000552000
    5       -0.0000078300
    6       -0.0000000000
    7        0.0000000000
    8       -0.0000013100
    9        0.0000000000
   10       -0.0000000000
   11        0.0000087200
   12        0.0000000000
   13       -0.0000000000
   14       -0.0000174700
   15       -0.0000000000
   16        0.0000000000
   17        0.0000357200
   18       -0.0000020900
   19       -0.0000006400
   20       -0.0000038900
   21       -0.0000000000
   22        0.0000000000
   23       -0.0000000000
   24       -0.0000143800
   25       -0.0000199000
   26       -0.0000080500
   27        0.0000000000
   28       -0.0000000000
   29       -0.0000000000
   30       -0.0000049500
   31        0.0000047800
   32       -0.0000139500
   33        0.0000000000
   34        0.0000000000
   35       -0.0000000000
   36       -0.0000000000
   37        0.0000000000
   38       -0.0000019900
   39       -0.0000000000
   40        0.0000000000
   41       -0.0000025200
   42        0.0000000000
   43        0.0000000000
   44       -0.0000009300
   45       -0.0000000000
   46       -0.0000000000
   47        0.0000000000
   48       -0.0000004600
   49       -0.0000000000
   50        0.0000000000
   51        0.0000035500
   52       -0.0000000000
   53        0.0000000000
   54        0.0000001700
   55        0.0000000000
   56       -0.6869629700
   57        0.0068948200
   58       -0.0352885400
   59       -0.0068132500
   60        0.0044917800
   61       -0.0005970700
   62        0.0000000000
   63       -0.0000439300
   64        0.0016633200
   65       -0.0000000000
   66        0.0000910400
   67       -0.0122474100
   68        0.0000000000
   69        0.0000113200
   70        0.0008445500
   71       -0.0000000000
   72        0.0000073600
   73       -0.0020486000
   74       -0.0020298800
   75       -0.0020288100
   76        0.0000000000
   77        0.0000003700
   78        0.0000000000
   79       -0.0059831900
   80       -0.0063964800
   81       -0.0063979800
   82        0.0000000000
   83       -0.0000003700
   84       -0.0000000000
   85       -0.0077985400
   86       -0.0047750000
   87       -0.0047737200
   88        0.0000000000
   89       -0.0000001700
   90        0.0000000000
   91       -0.0004304500
   92        0.0000000000
   93       -0.0000327600
   94       -0.0002473300
   95        0.0000000000
   96       -0.0000141800
   97       -0.0002469300
   98        0.0000000000
   99       -0.0000144400
  100       -0.0000000000
  101       -0.0001178700
  102        0.0000000000
  103       -0.0000301400
  104       -0.0000882700
  105        0.0000000000
  106       -0.0000143400
  107       -0.0000894200
  108        0.0000000000
  109       -0.0000138300
  110       -0.0000000000
  111       -0.0008065900
  112        0.0355922600
  113       -0.0106377100
  114       -0.0002673000
  115        0.0000000000
  116       -0.0000000000
  117        0.0000013300
  118       -0.0000000000
  119        0.0000000000
  120       -0.0000002300
  121       -0.0000000000
  122        0.0000000000
  123        0.0000010500
  124       -0.0009858900
  125       -0.0003439600
  126       -0.0003457100
  127        0.0000000000
  128       -0.0000000000
  129       -0.0000000000
  130        0.0217638500
  131        0.0042343500
  132        0.0042408700
  133        0.0000000000
  134       -0.0000000000
  135       -0.0000000000
  136       -0.6869630400
  137        0.0068948200
  138       -0.0352885400
  139       -0.0068132500
  140        0.0044917800
  141        0.0005970700
  142        0.0000000000
  143       -0.0000439300
  144       -0.0016633200
  145       -0.0000000000
  146        0.0000910400
  147        0.0122474100
  148       -0.0000000000
  149        0.0000113200
  150       -0.0008445500
  151       -0.0000000000
  152        0.0000073600
  153       -0.0020486000
  154       -0.0020298800
  155       -0.0020288100
  156        0.0000000000
  157       -0.0000003700
  158        0.0000000000
  159       -0.0059831900
  160       -0.0063964800
  161       -0.0063979800
  162       -0.0000000000
  163        0.0000003700
  164       -0.0000000000
  165       -0.0077985400
  166       -0.0047750000
  167       -0.0047737200
  168        0.0000000000
  169        0.0000001700
  170        0.0000000000
  171        0.0004304500
  172        0.0000000000
  173       -0.0000327600
  174        0.0002473300
  175        0.0000000000
  176       -0.0000141800
  177        0.0002469300
  178        0.0000000000
  179       -0.0000144400
  180        0.0000000000
  181        0.0001178700
  182        0.0000000000
  183       -0.0000301400
  184        0.0000882700
  185       -0.0000000000
  186       -0.0000143400
  187        0.0000894200
  188        0.0000000000
  189       -0.0000138300
  190        0.0000000000
 Ene=        -25.94520000
 Spin= Alpha
 Occup=        1.00000000
    1        0.9711121200
    2       -0.0105794300
    3        0.0491107200
    4       -0.0167778200
    5       -0.0014169000
    6       -0.0000000000
    7        0.0000000000
    8       -0.0001198600
    9        0.0000000000
   10        0.0000000000
   11        0.0002002900
   12        0.0000000000
   13        0.0000000000
   14       -0.0000495200
   15       -0.0000000000
   16       -0.0000000000
   17        0.0000980400
   18        0.0028417100
   19        0.0028418600
   20        0.0028393200
   21        0.0000000000
   22       -0.0000000000
   23       -0.0000000000
   24        0.0081217300
   25        0.0081197100
   26        0.0081289100
   27        0.0000000000
   28        0.0000000000
   29       -0.0000000000
   30        0.0029054100
   31        0.0029086200
   32        0.0028926200
   33        0.0000000000
   34       -0.0000000000
   35       -0.0000000000
   36        0.0000000000
   37       -0.0000000000
   38       -0.0000631600
   39       -0.0000000000
   40        0.0000000000
   41       -0.0000284900
   42       -0.0000000000
   43       -0.0000000000
   44       -0.0000281900
   45        0.0000000000
   46       -0.0000000000
   47       -0.0000000000
   48       -0.0000426000
   49       -0.0000000000
   50        0.0000000000
   51       -0.0000183300
   52       -0.0000000000
   53       -0.0000000000
   54       -0.0000190500
   55       -0.0000000000
   56        0.0000046100
   57        0.0000048600
   58        0.0000131800
   59       -0.0011892600
   60        0.0002193800
   61       -0.0000056700
   62       -0.0000000000
   63       -0.0000007300
   64        0.0000269800
   65        0.0000000000
   66       -0.0000005000
   67       -0.0005942300
   68       -0.0000000000
   69        0.0000239500
   70        0.0000980200
   71       -0.0000000000
   72        0.0001049400
   73        0.0000019400
   74       -0.0000009500
   75        0.0000042100
   76        0.0000000000
   77        0.0000025000
   78        0.0000000000
   79        0.0000150900
   80        0.0000283200
   81        0.0000080700
   82       -0.0000000000
   83       -0.0000107900
   84        0.0000000000
   85       -0.0002332300
   86       -0.0000958700
   87       -0.0000589500
   88       -0.0000000000
   89        0.0000446800
   90       -0.0000000000
   91       -0.0000092400
   92       -0.0000000000
   93       -0.0000003000
   94       -0.0000049000
   95       -0.0000000000
   96       -0.0000030500
   97       -0.0000053500
   98       -0.0000000000
   99        0.0000020100
  100        0.0000000000
  101       -0.0000208300
  102       -0.0000000000
  103       -0.0000072500
  104       -0.0000032000
  105       -0.0000000000
  106        0.0000071500
  107       -0.0000020900
  108       -0.0000000000
  109       -0.0000079400
  110        0.0000000000
  111       -0.0000109500
  112        0.0017971900
  113       -0.0008803800
  114        0.0001360500
  115        0.0000000000
  116        0.0000000000
  117        0.0000018600
  118       -0.0000000000
  119       -0.0000000000
  120       -0.0000505600
  121       -0.0000000000
  122       -0.0000000000
  123       -0.0001068200
  124        0.0000008500
  125        0.0000007300
  126       -0.0000070500
  127       -0.0000000000
  128        0.0000000000
  129        0.0000000000
  130        0.0011603300
  131        0.0002336300
  132        0.0002478200
  133       -0.0000000000
  134        0.0000000000
  135        0.0000000000
  136        0.0000046100
  137        0.0000048600
  138        0.0000131800
  139       -0.0011892600
  140        0.0002193800
  141        0.0000056700
  142       -0.0000000000
  143       -0.0000007300
  144       -0.0000269800
  145        0.0000000000
  146       -0.0000005000
  147        0.0005942300
  148        0.0000000000
  149        0.0000239500
  150       -0.0000980200
  151       -0.0000000000
  152        0.0001049400
  153        0.0000019400
  154       -0.0000009500
  155        0.0000042100
  156        0.0000000000
  157       -0.0000025000
  158       -0.0000000000
  159        0.0000150900
  160        0.0000283200
  161        0.0000080700
  162       -0.0000000000
  163        0.0000107900
  164       -0.0000000000
  165       -0.0002332300
  166       -0.0000958700
  167       -0.0000589500
  168       -0.0000000000
  169       -0.0000446800
  170       -0.0000000000
  171        0.0000092400
  172       -0.0000000000
  173       -0.0000003000
  174        0.0000049000
  175       -0.0000000000
  176       -0.0000030500
  177        0.0000053500
  178       -0.0000000000
  179        0.0000020100
  180       -0.0000000000
  181        0.0000208300
  182       -0.0000000000
  183       -0.0000072500
  184        0.0000032000
  185       -0.0000000000
  186        0.0000071500
  187        0.0000020900
  188       -0.0000000000
  189       -0.0000079400
  190        0.0000000000
 Ene=         -1.30262000
 Spin= Alpha
 Occup=        1.00000000
    1       -0.0001073600
    2        0.0002252800
    3       -0.0000678600
    4        0.0013143300
    5        0.0003862200
    6       -0.0000000000
    7       -0.0000000000
    8       -0.0000769000
    9        0.0000000000
   10        0.0000000000
   11        0.0000534500
   12       -0.0000000000
   13        0.0000000000
   14        0.0003458700
   15        0.0000000000
   16       -0.0000000000
   17        0.0001871600
   18        0.0000044600
   19        0.0000061000
   20       -0.0000168800
   21        0.0000000000
   22       -0.0000000000
   23        0.0000000000
   24       -0.0002517700
   25       -0.0002623800
   26       -0.0001081900
   27       -0.0000000000
   28        0.0000000000
   29       -0.0000000000
   30       -0.0001944100
   31       -0.0001651800
   32       -0.0005855600
   33       -0.0000000000
   34       -0.0000000000
   35        0.0000000000
   36       -0.0000000000
   37       -0.0000000000
   38       -0.0000723400
   39       -0.0000000000
   40       -0.0000000000
   41       -0.0000199600
   42       -0.0000000000
   43       -0.0000000000
   44       -0.0000179200
   45       -0.0000000000
   46       -0.0000000000
   47       -0.0000000000
   48       -0.0001565800
   49       -0.0000000000
   50       -0.0000000000
   51       -0.0001063900
   52        0.0000000000
   53       -0.0000000000
   54       -0.0001124200
   55        0.0000000000
   56       -0.0058850400
   57        0.3776070400
   58        0.1074638600
   59        0.3392581700
   60        0.0132473300
   61        0.0182066000
   62       -0.0000000000
   63        0.0005102800
   64        0.0231821700
   65       -0.0000000000
   66        0.0007083700
   67        0.0586074800
   68       -0.0000000000
   69        0.0013350400
   70       -0.0021094700
   71        0.0000000000
   72        0.0000208700
   73        0.0018746400
   74        0.0002991500
   75        0.0003053000
   76        0.0000000000
   77        0.0000112100
   78       -0.0000000000
   79        0.0028642500
   80       -0.0033733100
   81       -0.0032631600
   82       -0.0000000000
   83        0.0000793800
   84        0.0000000000
   85        0.0171541700
   86        0.0036190800
   87        0.0039098000
   88       -0.0000000000
   89        0.0002211000
   90       -0.0000000000
   91        0.0014354900
   92        0.0000000000
   93        0.0000197700
   94        0.0000269400
   95        0.0000000000
   96        0.0000148400
   97        0.0000260200
   98        0.0000000000
   99        0.0000136600
  100        0.0000000000
  101        0.0010551800
  102       -0.0000000000
  103        0.0001080900
  104       -0.0000861100
  105       -0.0000000000
  106        0.0000416300
  107       -0.0000493400
  108       -0.0000000000
  109        0.0000166800
  110        0.0000000000
  111        0.0627403100
  112       -0.0978424100
  113        0.0315641000
  114       -0.0032626900
  115       -0.0000000000
  116       -0.0000000000
  117        0.0000569400
  118       -0.0000000000
  119        0.0000000000
  120        0.0002504700
  121        0.0000000000
  122       -0.0000000000
  123        0.0005118600
  124        0.0077920300
  125        0.0003552500
  126        0.0003703000
  127       -0.0000000000
  128        0.0000000000
  129       -0.0000000000
  130       -0.0787190200
  131       -0.0171736700
  132       -0.0168856000
  133       -0.0000000000
  134        0.0000000000
  135        0.0000000000
  136       -0.0058850400
  137        0.3776070400
  138        0.1074638600
  139        0.3392581700
  140        0.0132473300
  141       -0.0182066000
  142        0.0000000000
  143        0.0005102800
  144       -0.0231821700
  145       -0.0000000000
  146        0.0007083700
  147       -0.0586074800
  148        0.0000000000
  149        0.0013350400
  150        0.0021094700
  151        0.0000000000
  152        0.0000208700
  153        0.0018746400
  154        0.0002991500
  155        0.0003053000
  156        0.0000000000
  157       -0.0000112100
  158        0.0000000000
  159        0.0028642500
  160       -0.0033733100
  161       -0.0032631600
  162       -0.0000000000
  163       -0.0000793800
  164       -0.0000000000
  165        0.0171541700
  166        0.0036190800
  167        0.0039098000
  168       -0.0000000000
  169       -0.0002211000
  170       -0.0000000000
  171       -0.0014354900
  172        0.0000000000
  173        0.0000197700
  174       -0.0000269400
  175        0.0000000000
  176        0.0000148400
  177       -0.0000260200
  178        0.0000000000
  179        0.0000136600
  180       -0.0000000000
  181       -0.0010551800
  182        0.0000000000
  183        0.0001080900
  184        0.0000861100
  185       -0.0000000000
  186        0.0000416300
  187        0.0000493400
  188       -0.0000000000
  189        0.0000166800
  190       -0.0000000000
 Ene=         -1.25497000
 Spin= Alpha
 Occup=        1.00000000
    1       -0.0000000000
    2       -0.0000000000
    3       -0.0000000000
    4        0.0000000000
    5        0.0000000000
    6        0.0000068100
    7        0.0000000000
    8       -0.0000000000
    9        0.0000280800
   10       -0.0000000000
   11        0.0000000000
   12        0.0000763600
   13        0.0000000000
   14        0.0000000000
   15       -0.0002675500
   16        0.0000000000
   17        0.0000000000
   18       -0.0000000000
   19       -0.0000000000
   20       -0.0000000000
   21       -0.0000000000
   22        0.0000074000
   23       -0.0000000000
   24       -0.0000000000
   25       -0.0000000000
   26       -0.0000000000
   27        0.0000000000
   28       -0.0000494600
   29        0.0000000000
   30       -0.0000000000
   31       -0.0000000000
   32       -0.0000000000
   33       -0.0000000000
   34        0.0001337800
   35       -0.0000000000
   36       -0.0000118100
   37        0.0000000000
   38       -0.0000000000
   39       -0.0000053700
   40        0.0000000000
   41       -0.0000000000
   42        0.0000035800
   43        0.0000000000
   44       -0.0000000000
   45        0.0000000000
   46       -0.0000047700
   47        0.0000000000
   48       -0.0000000000
   49       -0.0000018800
   50        0.0000000000
   51       -0.0000000000
   52       -0.0000278700
   53        0.0000000000
   54       -0.0000000000
   55       -0.0000000000
   56        0.0055069000
   57       -0.3955693500
   58       -0.1116307800
   59       -0.2741469100
   60       -0.0356282700
   61       -0.0052955400
   62        0.0000000000
   63       -0.0005239300
   64       -0.0089856200
   65        0.0000000000
   66       -0.0007474000
   67        0.0028714100
   68        0.0000000000
   69       -0.0015128200
   70       -0.0044205200
   71        0.0000000000
   72       -0.0002320300
   73       -0.0012316700
   74       -0.0003549300
   75       -0.0003625000
   76        0.0000000000
   77       -0.0000064100
   78        0.0000000000
   79        0.0005767900
   80        0.0040314000
   81        0.0039283200
   82       -0.0000000000
   83       -0.0000473800
   84       -0.0000000000
   85        0.0084273300
   86        0.0038210000
   87        0.0034244400
   88        0.0000000000
   89       -0.0002434100
   90       -0.0000000000
   91       -0.0010026800
   92       -0.0000000000
   93       -0.0000143800
   94        0.0001101200
   95       -0.0000000000
   96       -0.0000060700
   97        0.0001186000
   98       -0.0000000000
   99       -0.0000109000
  100       -0.0000000000
  101        0.0005216100
  102       -0.0000000000
  103       -0.0000812800
  104        0.0003095100
  105       -0.0000000000
  106       -0.0000317800
  107        0.0002514000
  108       -0.0000000000
  109       -0.0000049500
  110        0.0000000000
  111        0.0000000000
  112       -0.0000000000
  113        0.0000000000
  114       -0.0000000000
  115        0.0124088000
  116        0.0000000000
  117        0.0000000000
  118        0.0277255900
  119       -0.0000000000
  120        0.0000000000
  121       -0.0098172200
  122       -0.0000000000
  123        0.0000000000
  124        0.0000000000
  125        0.0000000000
  126        0.0000000000
  127        0.0000000000
  128        0.0000232100
  129        0.0000000000
  130       -0.0000000000
  131       -0.0000000000
  132       -0.0000000000
  133        0.0000000000
  134        0.0000915700
  135        0.0000000000
  136       -0.0055069000
  137        0.3955693500
  138        0.1116307800
  139        0.2741469100
  140        0.0356282700
  141       -0.0052955400
  142       -0.0000000000
  143        0.0005239300
  144       -0.0089856200
  145       -0.0000000000
  146        0.0007474000
  147        0.0028714100
  148       -0.0000000000
  149        0.0015128200
  150       -0.0044205200
  151       -0.0000000000
  152        0.0002320300
  153        0.0012316700
  154        0.0003549300
  155        0.0003625000
  156       -0.0000000000
  157       -0.0000064100
  158        0.0000000000
  159       -0.0005767900
  160       -0.0040314000
  161       -0.0039283200
  162        0.0000000000
  163       -0.0000473800
  164       -0.0000000000
  165       -0.0084273300
  166       -0.0038210000
  167       -0.0034244400
  168        0.0000000000
  169       -0.0002434100
  170       -0.0000000000
  171       -0.0010026800
  172        0.0000000000
  173        0.0000143800
  174        0.0001101200
  175        0.0000000000
  176        0.0000060700