 Molden2AIM, Version 3.1.0 (02/25/2015)           Time: Wed Apr 23 15:22:45 2025
GAUSSIAN            224 MOL ORBITALS    224 PRIMITIVES        4 NUCLEI
  F    1    (CENTRE  1)   0.00000000  0.00000000  7.55890395  CHARGE =  9.0
  H    2    (CENTRE  2)   0.00000000  0.00000000  0.00000000  CHARGE =  1.0
  F    3    (CENTRE  3)  -1.79523969  0.00000000  0.00000000  CHARGE =  9.0
  F    4    (CENTRE  4)   1.79523969  0.00000000  0.00000000  CHARGE =  9.0
CENTRE ASSIGNMENTS    1  1  1  1  1  1  1  1  1  1  1  1  1  1  1  1  1  1  1  1
CENTRE ASSIGNMENTS    1  1  1  1  1  1  1  1  1  1  1  1  1  1  1  1  1  1  1  1
CENTRE ASSIGNMENTS    1  1  1  1  1  1  1  1  1  1  1  1  1  1  1  1  2  2  2  2
CENTRE ASSIGNMENTS    2  2  2  2  2  2  2  2  2  2  2  2  2  2  2  2  2  2  2  2
CENTRE ASSIGNMENTS    2  2  2  2  2  2  2  2  2  2  2  2  2  2  2  2  2  2  2  2
CENTRE ASSIGNMENTS    2  2  2  2  2  2  2  2  2  2  2  2  3  3  3  3  3  3  3  3
CENTRE ASSIGNMENTS    3  3  3  3  3  3  3  3  3  3  3  3  3  3  3  3  3  3  3  3
CENTRE ASSIGNMENTS    3  3  3  3  3  3  3  3  3  3  3  3  3  3  3  3  3  3  3  3
CENTRE ASSIGNMENTS    3  3  3  3  3  3  3  3  4  4  4  4  4  4  4  4  4  4  4  4
CENTRE ASSIGNMENTS    4  4  4  4  4  4  4  4  4  4  4  4  4  4  4  4  4  4  4  4
CENTRE ASSIGNMENTS    4  4  4  4  4  4  4  4  4  4  4  4  4  4  4  4  4  4  4  4
CENTRE ASSIGNMENTS    4  4  4  4
TYPE ASSIGNMENTS      1  1  1  1  1  1  2  3  4  2  3  4  2  3  4  2  3  4  5  6
TYPE ASSIGNMENTS      7  8  9 10  5  6  7  8  9 10  5  6  7  8  9 10 11 12 13 17
TYPE ASSIGNMENTS     14 15 18 19 16 20 11 12 13 17 14 15 18 19 16 20  1  1  1  1
TYPE ASSIGNMENTS      1  1  2  3  4  2  3  4  2  3  4  2  3  4  5  6  7  8  9 10
TYPE ASSIGNMENTS      5  6  7  8  9 10  5  6  7  8  9 10 11 12 13 17 14 15 18 19
TYPE ASSIGNMENTS     16 20 11 12 13 17 14 15 18 19 16 20  1  1  1  1  1  1  2  3
TYPE ASSIGNMENTS      4  2  3  4  2  3  4  2  3  4  5  6  7  8  9 10  5  6  7  8
TYPE ASSIGNMENTS      9 10  5  6  7  8  9 10 11 12 13 17 14 15 18 19 16 20 11 12
TYPE ASSIGNMENTS     13 17 14 15 18 19 16 20  1  1  1  1  1  1  2  3  4  2  3  4
TYPE ASSIGNMENTS      2  3  4  2  3  4  5  6  7  8  9 10  5  6  7  8  9 10  5  6
TYPE ASSIGNMENTS      7  8  9 10 11 12 13 17 14 15 18 19 16 20 11 12 13 17 14 15
TYPE ASSIGNMENTS     18 19 16 20
EXPONENTS  0.1706472D-01 0.4342701D-01 0.1105148D+00 0.2812428D+00 0.7157182D+00
EXPONENTS  0.1821389D+01 0.4963129D-01 0.4963129D-01 0.4963129D-01 0.1242075D+00
EXPONENTS  0.1242075D+00 0.1242075D+00 0.3108421D+00 0.3108421D+00 0.3108421D+00
EXPONENTS  0.7779146D+00 0.7779146D+00 0.7779146D+00 0.9506481D-01 0.9506481D-01
EXPONENTS  0.9506481D-01 0.9506481D-01 0.9506481D-01 0.9506481D-01 0.2336777D+00
EXPONENTS  0.2336777D+00 0.2336777D+00 0.2336777D+00 0.2336777D+00 0.2336777D+00
EXPONENTS  0.5744006D+00 0.5744006D+00 0.5744006D+00 0.5744006D+00 0.5744006D+00
EXPONENTS  0.5744006D+00 0.1595675D+00 0.1595675D+00 0.1595675D+00 0.1595675D+00
EXPONENTS  0.1595675D+00 0.1595675D+00 0.1595675D+00 0.1595675D+00 0.1595675D+00
EXPONENTS  0.1595675D+00 0.4273065D+00 0.4273065D+00 0.4273065D+00 0.4273065D+00
EXPONENTS  0.4273065D+00 0.4273065D+00 0.4273065D+00 0.4273065D+00 0.4273065D+00
EXPONENTS  0.4273065D+00 0.1706472D-01 0.4342701D-01 0.1105148D+00 0.2812428D+00
EXPONENTS  0.7157182D+00 0.1821389D+01 0.4963129D-01 0.4963129D-01 0.4963129D-01
EXPONENTS  0.1242075D+00 0.1242075D+00 0.1242075D+00 0.3108421D+00 0.3108421D+00
EXPONENTS  0.3108421D+00 0.7779146D+00 0.7779146D+00 0.7779146D+00 0.9506481D-01
EXPONENTS  0.9506481D-01 0.9506481D-01 0.9506481D-01 0.9506481D-01 0.9506481D-01
EXPONENTS  0.2336777D+00 0.2336777D+00 0.2336777D+00 0.2336777D+00 0.2336777D+00
EXPONENTS  0.2336777D+00 0.5744006D+00 0.5744006D+00 0.5744006D+00 0.5744006D+00
EXPONENTS  0.5744006D+00 0.5744006D+00 0.1595675D+00 0.1595675D+00 0.1595675D+00
EXPONENTS  0.1595675D+00 0.1595675D+00 0.1595675D+00 0.1595675D+00 0.1595675D+00
EXPONENTS  0.1595675D+00 0.1595675D+00 0.4273065D+00 0.4273065D+00 0.4273065D+00
EXPONENTS  0.4273065D+00 0.4273065D+00 0.4273065D+00 0.4273065D+00 0.4273065D+00
EXPONENTS  0.4273065D+00 0.4273065D+00 0.1706472D-01 0.4342701D-01 0.1105148D+00
EXPONENTS  0.2812428D+00 0.7157182D+00 0.1821389D+01 0.4963129D-01 0.4963129D-01
EXPONENTS  0.4963129D-01 0.1242075D+00 0.1242075D+00 0.1242075D+00 0.3108421D+00
EXPONENTS  0.3108421D+00 0.3108421D+00 0.7779146D+00 0.7779146D+00 0.7779146D+00
EXPONENTS  0.9506481D-01 0.9506481D-01 0.9506481D-01 0.9506481D-01 0.9506481D-01
EXPONENTS  0.9506481D-01 0.2336777D+00 0.2336777D+00 0.2336777D+00 0.2336777D+00
EXPONENTS  0.2336777D+00 0.2336777D+00 0.5744006D+00 0.5744006D+00 0.5744006D+00
EXPONENTS  0.5744006D+00 0.5744006D+00 0.5744006D+00 0.1595675D+00 0.1595675D+00
EXPONENTS  0.1595675D+00 0.1595675D+00 0.1595675D+00 0.1595675D+00 0.1595675D+00
EXPONENTS  0.1595675D+00 0.1595675D+00 0.1595675D+00 0.4273065D+00 0.4273065D+00
EXPONENTS  0.4273065D+00 0.4273065D+00 0.4273065D+00 0.4273065D+00 0.4273065D+00
EXPONENTS  0.4273065D+00 0.4273065D+00 0.4273065D+00 0.1706472D-01 0.4342701D-01
EXPONENTS  0.1105148D+00 0.2812428D+00 0.7157182D+00 0.1821389D+01 0.4963129D-01
EXPONENTS  0.4963129D-01 0.4963129D-01 0.1242075D+00 0.1242075D+00 0.1242075D+00
EXPONENTS  0.3108421D+00 0.3108421D+00 0.3108421D+00 0.7779146D+00 0.7779146D+00
EXPONENTS  0.7779146D+00 0.9506481D-01 0.9506481D-01 0.9506481D-01 0.9506481D-01
EXPONENTS  0.9506481D-01 0.9506481D-01 0.2336777D+00 0.2336777D+00 0.2336777D+00
EXPONENTS  0.2336777D+00 0.2336777D+00 0.2336777D+00 0.5744006D+00 0.5744006D+00
EXPONENTS  0.5744006D+00 0.5744006D+00 0.5744006D+00 0.5744006D+00 0.1595675D+00
EXPONENTS  0.1595675D+00 0.1595675D+00 0.1595675D+00 0.1595675D+00 0.1595675D+00
EXPONENTS  0.1595675D+00 0.1595675D+00 0.1595675D+00 0.1595675D+00 0.4273065D+00
EXPONENTS  0.4273065D+00 0.4273065D+00 0.4273065D+00 0.4273065D+00 0.4273065D+00
EXPONENTS  0.4273065D+00 0.4273065D+00 0.4273065D+00 0.4273065D+00
MO    1     MO 0.0        OCC NO =    1.0000000  ORB. ENERGY =   -0.341249
 -0.94361805D-03 -0.31767211D-01 -0.35094697D-01  0.16760222D-01  0.41143301D-01
  0.11118700D-01  0.95044405D-03  0.53426236D-08  0.56636288D-02  0.66708459D-03
  0.11561586D-07  0.37819640D-02  0.13254148D-02  0.13233504D-07  0.85901353D-02
 -0.25094826D-02 -0.20827396D-07 -0.15259650D-01  0.37052707D-03  0.40287387D-03
 -0.13266007D-02 -0.46398581D-09 -0.61168920D-03 -0.32479007D-08  0.25140226D-02
  0.26018729D-02  0.23834171D-02 -0.00000000D+00  0.69784559D-04 -0.00000000D+00
  0.61833265D-02  0.60592680D-02  0.67607775D-02 -0.00000000D+00  0.75500356D-04
 -0.00000000D+00  0.49980695D-04 -0.23690789D-09  0.74180339D-03  0.43997735D-04
 -0.00000000D+00  0.47554635D-03  0.21737969D-03  0.52974216D-09  0.45884147D-03
  0.00000000D+00 -0.23063200D-03 -0.21732927D-08 -0.14821943D-02 -0.22088478D-03
 -0.48596303D-08 -0.13308000D-02 -0.37601875D-03 -0.48596303D-08 -0.13656873D-02
 -0.00000000D+00 -0.72237196D-03  0.27215313D-01  0.36228434D-02  0.42302029D-01
  0.29577692D-02  0.20009444D-03 -0.22076776D-02  0.00000000D+00  0.30341127D-03
 -0.32492542D-01  0.73573728D-08  0.38133386D-01  0.94794962D-02 -0.00000000D+00
  0.64454310D-02 -0.25722876D-03 -0.00000000D+00 -0.17321729D-02 -0.15779636D-03
  0.23022879D-03  0.26631067D-03 -0.46398581D-09  0.67465996D-03 -0.46398581D-09
  0.68920819D-02  0.28110590D-02  0.36300599D-02  0.22389810D-08  0.87223981D-03
 -0.22389810D-08  0.84000865D-03  0.15586224D-02  0.12077179D-02 -0.00000000D+00
  0.33669399D-03  0.00000000D+00  0.15999629D-02 -0.47381579D-09 -0.16614526D-02
  0.23800706D-02  0.52974216D-09  0.21121297D-02  0.18685637D-02 -0.52974216D-09
 -0.16336310D-02  0.91754033D-09  0.64833886D-03 -0.00000000D+00 -0.12744558D-02
 -0.90921739D-03 -0.00000000D+00  0.11497448D-02 -0.11154795D-02 -0.00000000D+00
 -0.12843954D-02  0.00000000D+00 -0.67098343D-04 -0.43114227D-01 -0.23328320D-01
 -0.48595191D-01  0.31022325D-01  0.61330001D-02 -0.38231450D-02  0.23373978D-08
 -0.43290571D-02 -0.17634691D-01 -0.31531598D-08 -0.28406944D-01  0.37669169D-03
  0.33083760D-08 -0.78453339D-02  0.67431820D-03 -0.10413698D-07  0.14522819D-01
 -0.25394763D-03  0.27303076D-03 -0.15102598D-02  0.92797162D-09 -0.14474984D-02
  0.23199291D-08 -0.44931578D-02 -0.19077846D-02 -0.28125339D-02  0.00000000D+00
 -0.39930210D-02  0.00000000D+00  0.55822528D-02  0.54748618D-02  0.62772312D-02
 -0.00000000D+00 -0.93111343D-03  0.00000000D+00  0.11378615D-02  0.23690789D-09
  0.85401339D-03  0.12719819D-02  0.52974216D-09  0.12268420D-02  0.81971136D-03
  0.52974216D-09  0.11644702D-02  0.91754033D-09 -0.86524434D-03 -0.00000000D+00
  0.27742538D-02 -0.44807249D-03 -0.00000000D+00  0.18959653D-02 -0.54609609D-03
 -0.00000000D+00  0.25012954D-02 -0.00000000D+00  0.26663146D-03 -0.10358952D-01
  0.68179377D-02  0.21469605D-01  0.72573356D-02  0.35646242D-02  0.94406930D-03
  0.10017419D-08 -0.12192461D-02 -0.20978739D-02 -0.73573728D-08 -0.28816996D-01
  0.63495741D-02  0.33083760D-08 -0.59393355D-02 -0.57072273D-02 -0.00000000D+00
  0.98655211D-02  0.39808681D-03  0.63703571D-03  0.35200730D-03 -0.00000000D+00
  0.11420732D-02  0.92797162D-09  0.30555971D-02  0.21793126D-02  0.28979100D-02
  0.22389810D-08  0.48092460D-02 -0.22389810D-08  0.39098893D-03  0.56936048D-03
  0.70560777D-03  0.00000000D+00  0.83820737D-03  0.00000000D+00  0.24312981D-03
  0.47381579D-09  0.11418636D-02  0.32602928D-03  0.52974216D-09  0.13552939D-02
  0.30078760D-03  0.52974216D-09  0.12055946D-02 -0.00000000D+00 -0.14697544D-02
 -0.00000000D+00  0.22391609D-02 -0.13196083D-02 -0.00000000D+00  0.13676749D-02
 -0.14412594D-02 -0.00000000D+00  0.22027586D-02  0.00000000D+00
MO    2     MO 0.0        OCC NO =    0.0000000  ORB. ENERGY =   -0.263816
  0.38528900D-02  0.46724451D-01  0.38542342D-01 -0.19397409D-01 -0.47037083D-01
 -0.11428390D-01  0.23952728D-02 -0.12688731D-07  0.28538592D-03  0.34211195D-02
 -0.26276332D-07  0.20859539D-02  0.19120031D-02 -0.13233504D-07  0.23235088D-02
 -0.73172788D-02  0.41654793D-07 -0.69622341D-02 -0.44412667D-03 -0.38453759D-03
 -0.93962702D-03 -0.46398581D-09 -0.99876008D-03  0.13919574D-08 -0.39454057D-02
 -0.39124437D-02 -0.43190343D-02 -0.00000000D+00  0.15347319D-03 -0.22389810D-08
 -0.85657578D-02 -0.86194595D-02 -0.79077137D-02 -0.00000000D+00  0.11903083D-03
  0.00000000D+00 -0.23368073D-03  0.14214474D-08 -0.70072617D-05 -0.24153541D-03
  0.15892265D-08 -0.95258764D-04 -0.87264425D-05  0.15892265D-08 -0.12536772D-03
  0.00000000D+00 -0.14384786D-02  0.86931709D-08 -0.12017070D-02 -0.14279538D-02
  0.97192606D-08 -0.12130415D-02 -0.16035565D-02  0.97192606D-08 -0.12129248D-02
 -0.00000000D+00 -0.91270619D-03  0.63795588D-01 -0.60160580D-02  0.17935008D-01
  0.15876799D-01  0.95024465D-04 -0.16680844D-01  0.13356559D-08  0.16723036D-02
 -0.51991743D-01 -0.18918959D-07 -0.17018461D-01  0.11243840D-01 -0.33083760D-08
  0.44260777D-03 -0.14974586D-02  0.00000000D+00  0.14748817D-02 -0.43497501D-03
  0.63438206D-03  0.83221504D-03  0.13919574D-08 -0.33829864D-02  0.46398581D-09
  0.80889088D-03  0.34685387D-02  0.36825361D-02  0.22389810D-08 -0.18027155D-02
  0.00000000D+00  0.81490065D-02  0.46649820D-02  0.43684405D-02  0.00000000D+00
 -0.37697237D-03 -0.00000000D+00  0.53298235D-02  0.11845395D-08  0.11857906D-02
  0.68057124D-02 -0.10594843D-08 -0.13588813D-02  0.53542523D-02  0.10594843D-08
  0.11795440D-02  0.91754033D-09  0.67575495D-03  0.00000000D+00  0.70101296D-03
 -0.20540685D-02 -0.00000000D+00  0.71394772D-03 -0.28659815D-02  0.00000000D+00
  0.68648109D-03  0.00000000D+00 -0.41662344D-02 -0.14828585D+00  0.80444887D-02
 -0.86096978D-01  0.55091759D-01  0.11036627D-01 -0.10901724D-01  0.40069677D-08
 -0.90053777D-02 -0.25086804D-01  0.24174225D-07  0.83794969D-02 -0.55587333D-04
  0.66167519D-08 -0.67649473D-02 -0.64854950D-02 -0.10413698D-07  0.32935299D-02
 -0.19067722D-02 -0.99386247D-03 -0.26733001D-02  0.92797162D-09 -0.18581087D-02
  0.92797162D-09 -0.10646118D-01 -0.27188394D-02 -0.42904675D-02  0.44779619D-08
  0.82193887D-03  0.22389810D-08  0.94412162D-02  0.10917018D-01  0.10982903D-01
  0.00000000D+00 -0.40976338D-03 -0.00000000D+00  0.23731372D-02 -0.71072368D-09
 -0.15317512D-02  0.29644043D-02 -0.52974216D-09 -0.18689277D-02  0.24189685D-02
 -0.52974216D-09 -0.14061380D-02  0.00000000D+00 -0.24301846D-02 -0.21732927D-08
 -0.50630331D-03 -0.10649151D-02 -0.00000000D+00 -0.40368463D-03 -0.14245958D-02
 -0.00000000D+00 -0.68861447D-03  0.00000000D+00  0.92771340D-03  0.21584127D-01
 -0.25743720D-01  0.11972785D+00 -0.13611133D-02  0.42950745D-02 -0.21484239D-02
 -0.16695699D-08  0.14581118D-02 -0.17111478D-01  0.11561586D-07  0.18617597D-01
  0.83486173D-02 -0.00000000D+00  0.15640877D-02 -0.10855072D-01 -0.10413698D-07
  0.18668845D-02  0.24344345D-02  0.26153092D-02  0.33506663D-02  0.46398581D-09
 -0.10882769D-02 -0.13919574D-08  0.13314755D-01  0.77713486D-02  0.99998488D-02
 -0.00000000D+00 -0.25706457D-02 -0.22389810D-08 -0.32721931D-02 -0.90142036D-03
 -0.17935837D-02  0.00000000D+00 -0.38240692D-03  0.00000000D+00  0.21061569D-02
 -0.94763158D-09 -0.18293033D-03  0.24747313D-02 -0.10594843D-08 -0.38678806D-03
  0.20215072D-02 -0.10594843D-08 -0.25397640D-03  0.91754033D-09 -0.39279962D-02
 -0.21732927D-08  0.82542962D-03 -0.37611983D-02 -0.00000000D+00  0.12707447D-02
 -0.42431376D-02 -0.00000000D+00  0.91618124D-03  0.00000000D+00
MO    3     MO 0.0        OCC NO =    0.0000000  ORB. ENERGY =   -0.241207
  0.23554967D-08  0.30510022D-07  0.32785876D-07 -0.13762302D-07 -0.33274986D-07
 -0.11174090D-07 -0.80139353D-08  0.21484341D-01 -0.26713118D-08 -0.11561586D-07
  0.36655121D-01  0.73573728D-08 -0.33083760D-08  0.26624784D-02 -0.66167519D-08
  0.20827396D-07 -0.53163335D-01 -0.00000000D+00  0.13394117D-08 -0.32145880D-08
  0.16072940D-08 -0.10433199D-02  0.23199291D-08 -0.67603865D-02 -0.51707050D-08
 -0.51707050D-08 -0.38780288D-08  0.10471557D-02 -0.00000000D+00  0.57240690D-02
 -0.62378579D-08 -0.62378579D-08 -0.62378579D-08 -0.10221720D-02  0.00000000D+00
 -0.51492042D-02  0.94763158D-09 -0.41358068D-02 -0.18952632D-08  0.10594843D-08
 -0.41339372D-02 -0.21189686D-08  0.52974216D-09 -0.28928154D-02 -0.52974216D-09
  0.42655716D-03  0.43465855D-08 -0.14502135D-01 -0.21732927D-08  0.48596303D-08
 -0.14434992D-01 -0.00000000D+00  0.48596303D-08 -0.16082640D-01 -0.48596303D-08
 -0.67696424D-03 -0.20862971D-07 -0.65020247D-06 -0.21037604D-06 -0.10349251D-05
  0.44366649D-07  0.00000000D+00  0.26713118D-08 -0.70634035D-02 -0.38400107D-07
  0.44879974D-06  0.36594403D+00 -0.27537595D-06 -0.36392136D-07  0.21602398D-01
 -0.43008887D-07 -0.00000000D+00 -0.18441566D-01  0.00000000D+00 -0.14197764D-07
 -0.75007053D-08 -0.15001411D-07  0.30507304D-02  0.10207688D-07 -0.33477087D-02
 -0.15382847D-06 -0.46536345D-07 -0.49121698D-07  0.51791302D-02 -0.89559238D-08
 -0.48483364D-02  0.62378579D-08  0.12475716D-07  0.12475716D-07  0.43684973D-03
  0.00000000D+00  0.47888272D-02 -0.78179605D-08 -0.19718403D-01  0.99501316D-08
 -0.17481491D-07  0.26298201D-01 -0.18540975D-07 -0.14303038D-07 -0.19691495D-01
  0.10594843D-07  0.25841386D-02 -0.43465855D-08 -0.10791018D-01  0.43465855D-08
  0.00000000D+00 -0.16842847D-02 -0.97192606D-08  0.48596303D-08 -0.11061408D-01
  0.48596303D-08  0.12557427D-02  0.10767985D-07  0.33289824D-06  0.46856481D-06
  0.90280704D-06 -0.44366649D-07  0.00000000D+00  0.33391397D-07  0.20510680D-01
  0.26379204D-07  0.25645700D-06 -0.27371390D+00  0.20390433D-06  0.59550767D-07
  0.18002081D-01  0.26467008D-07  0.10413698D-07 -0.10329149D-01 -0.10413698D-07
  0.69649406D-08  0.16072940D-08  0.96437640D-08  0.58381247D-03  0.10207688D-07
  0.77552106D-02  0.85316633D-07  0.49121698D-07  0.56877755D-07 -0.34081936D-01
  0.26867772D-07  0.92637389D-03 -0.12475716D-07 -0.12475716D-07 -0.12475716D-07
 -0.53022145D-02  0.10804287D-07  0.17324026D-02 -0.13740658D-07  0.14537807D-01
 -0.52119737D-08 -0.15362523D-07  0.18921351D-01 -0.74163902D-08 -0.12713812D-07
  0.15530955D-01 -0.63569059D-08  0.22382800D-02  0.65198782D-08  0.46813334D-02
 -0.43465855D-08  0.48596303D-08 -0.21823822D-02  0.00000000D+00  0.48596303D-08
  0.33021285D-02 -0.48596303D-08 -0.22131993D-03  0.40379944D-08  0.28882821D-06
 -0.25135838D-06  0.27249359D-06  0.11091662D-07  0.00000000D+00 -0.30720085D-07
  0.10284286D-01  0.10685247D-07 -0.29429491D-07 -0.29239659D+00  0.19970012D-06
 -0.79401023D-07  0.73002458D-02  0.13233504D-07 -0.00000000D+00 -0.69233390D-02
 -0.10413698D-07  0.88401170D-08  0.61612937D-08  0.93758816D-08  0.29713545D-02
 -0.64958013D-08  0.33844698D-02  0.23268173D-07  0.25853525D-08  0.12926763D-08
  0.39605070D-01 -0.33584714D-07 -0.63108231D-02  0.62378579D-08  0.00000000D+00
  0.00000000D+00  0.62294492D-02 -0.10804287D-07  0.36808044D-02  0.52119737D-08
  0.14004018D-01 -0.99501316D-08  0.63569059D-08  0.17575680D-01 -0.11124585D-07
  0.52974216D-08  0.14382328D-01 -0.10594843D-07 -0.31482644D-03  0.00000000D+00
  0.34803349D-02 -0.65198782D-08 -0.00000000D+00 -0.41394088D-02 -0.00000000D+00
  0.00000000D+00  0.29124104D-02 -0.97192606D-08  0.14719787D-02
MO    4     MO 0.0        OCC NO =    0.0000000  ORB. ENERGY =   -0.240864
 -0.27898820D-02 -0.18482278D-01 -0.95292026D-02  0.59619230D-02  0.14604109D-01
  0.27575644D-02  0.16254657D-01  0.13690473D-07 -0.21328047D-02  0.24465110D-01
  0.25225278D-07 -0.49141007D-02  0.66534352D-02  0.33083760D-08 -0.35638421D-02
 -0.41650669D-01 -0.31241095D-07  0.10852354D-01 -0.14006442D-03  0.69337940D-03
  0.10346944D-02 -0.51038439D-08 -0.38288814D-02 -0.18559432D-08  0.22427455D-02
  0.15548698D-02  0.24022992D-02  0.00000000D+00  0.14365906D-02  0.22389810D-08
  0.32118792D-02  0.38472674D-02  0.28142033D-02 -0.00000000D+00 -0.75337211D-03
 -0.00000000D+00 -0.21361265D-02 -0.23690789D-08  0.16170148D-04 -0.21914358D-02
 -0.21189686D-08  0.30413027D-03 -0.14828410D-02 -0.21189686D-08  0.19128989D-04
  0.18350807D-08 -0.96932768D-02 -0.86931709D-08  0.17608344D-02 -0.96035674D-02
 -0.97192606D-08  0.15869803D-02 -0.10231796D-01 -0.97192606D-08  0.19829090D-02
 -0.00000000D+00  0.12568189D-01  0.27567474D+00  0.78161098D-01  0.34283555D+00
 -0.17424768D-01 -0.35159275D-03 -0.19269073D-01 -0.96835052D-08  0.18451860D-01
 -0.38729138D+00  0.11666691D-06  0.79537419D-01 -0.76131256D-02  0.33083760D-08
  0.14714158D-01 -0.30644390D-03 -0.10413698D-07 -0.13214983D-04  0.36355027D-02
  0.21974109D-02  0.57744772D-02  0.78877588D-08 -0.20340599D-01 -0.37118865D-08
  0.49995374D-01  0.13883993D-01  0.14805339D-01  0.15672867D-07 -0.72566403D-02
 -0.22389810D-08 -0.19334989D-02 -0.64613915D-02 -0.67356015D-02  0.00000000D+00
 -0.23339312D-02  0.00000000D+00  0.95287757D-02 -0.68703289D-08 -0.23380713D-02
  0.18492467D-01  0.84758745D-08  0.57222705D-02  0.13245785D-01 -0.74163902D-08
 -0.26907988D-02  0.64227823D-08  0.11814171D-02 -0.43465855D-08 -0.91767286D-03
  0.10996955D-02 -0.00000000D+00  0.36469290D-02 -0.22161664D-02 -0.48596303D-08
 -0.62306778D-03  0.00000000D+00 -0.14373741D-01 -0.25773300D+00 -0.32864117D+00
 -0.52984972D+00  0.23171885D-01 -0.53568589D-03 -0.24636580D-01  0.17029613D-07
 -0.24674174D-01 -0.15724542D+00 -0.72522675D-07 -0.82328191D-01 -0.32626181D-01
  0.16541880D-07 -0.21323191D-01 -0.18768442D-01  0.00000000D+00 -0.62744719D-02
 -0.46598298D-02 -0.47064702D-03 -0.56857693D-02  0.46398581D-08 -0.88906140D-02
  0.78877588D-08 -0.52936641D-01 -0.29417802D-01 -0.37349784D-01 -0.44779619D-08
 -0.12397316D-01  0.89559238D-08  0.44764926D-02  0.61616749D-02  0.82639328D-02
  0.00000000D+00 -0.47033977D-02 -0.00000000D+00  0.75350861D-02  0.54488816D-08
 -0.12043293D-02  0.89505680D-02  0.79461323D-08 -0.97008344D-03  0.68500619D-02
  0.63569059D-08 -0.82001384D-03  0.27526210D-08 -0.53346687D-02  0.43465855D-08
 -0.33917189D-02 -0.34468240D-02  0.48596303D-08 -0.62176637D-02 -0.50474647D-02
  0.48596303D-08 -0.37379742D-02  0.00000000D+00  0.43757134D-02  0.80320813D-02
  0.26313693D+00  0.12527328D+00 -0.32755392D-01 -0.53447797D-02 -0.17579055D-02
 -0.33391397D-09  0.10155227D-01 -0.65599714D-01 -0.11351375D-06 -0.35057125D-01
  0.15639897D-01 -0.33083760D-08  0.12296502D-01 -0.25502626D-02 -0.00000000D+00
  0.38702822D-02 -0.15325393D-02 -0.30146669D-02 -0.80927949D-03  0.37118865D-08
 -0.43651938D-02 -0.13919574D-08  0.14821686D-01  0.10057952D-01  0.16254791D-01
  0.17911848D-07  0.44818600D-02 -0.89559238D-08 -0.82481448D-02 -0.59812885D-02
 -0.71143954D-02  0.00000000D+00  0.22415222D-02  0.00000000D+00  0.16535910D-02
  0.42643421D-08  0.55066260D-02  0.21329872D-02  0.47676794D-08  0.61887397D-02
  0.98371900D-03  0.42379372D-08  0.54055679D-02  0.18350807D-08 -0.21771373D-02
 -0.00000000D+00  0.53562495D-02 -0.61043274D-03 -0.48596303D-08  0.41755450D-02
 -0.26928183D-02 -0.00000000D+00  0.56301976D-02  0.00000000D+00
MO    5     MO 0.0        OCC NO =    0.0000000  ORB. ENERGY =   -0.215565
  0.81351168D-02  0.20467553D-02  0.91202780D-02 -0.31029973D-02 -0.12363831D-01
 -0.26720267D-02  0.58102457D-02  0.33391397D-08  0.15305295D-01  0.83778972D-02
 -0.00000000D+00  0.15098310D-01  0.19289221D-02  0.00000000D+00  0.11250850D-01
 -0.13699762D-01 -0.00000000D+00 -0.33947438D-01  0.54714645D-03  0.60743524D-03
 -0.22458108D-02 -0.18559432D-08 -0.14285112D-02 -0.64958013D-08 -0.14119942D-02
 -0.12516622D-02 -0.10163383D-02  0.00000000D+00  0.49477673D-03  0.22389810D-08
 -0.25886549D-02 -0.27952402D-02 -0.24610969D-02 -0.00000000D+00 -0.31360523D-03
 -0.00000000D+00 -0.77228112D-03 -0.23690789D-09 -0.21696380D-03 -0.78721644D-03
 -0.00000000D+00 -0.59648649D-03 -0.49016618D-03  0.10594843D-08 -0.60402366D-03
  0.91754033D-09 -0.32794857D-02 -0.00000000D+00 -0.61322867D-02 -0.32555878D-02
 -0.00000000D+00 -0.58554997D-02 -0.35111849D-02 -0.00000000D+00 -0.59454418D-02
 -0.00000000D+00  0.10374049D-01  0.14572781D+00  0.44254804D-01  0.16596533D+00
 -0.84595331D-02  0.10994188D-03  0.16689287D-01 -0.00000000D+00  0.75020325D-02
 -0.14794541D+00  0.48348450D-07 -0.28096654D-01 -0.75402718D-02  0.33083760D-08
  0.81185859D-02  0.19861318D-02 -0.00000000D+00  0.29979475D-02  0.17342555D-02
  0.15166169D-02  0.18424253D-02  0.46398581D-09 -0.47464240D-02 -0.18559432D-08
  0.24378623D-01  0.76298911D-02  0.88413924D-02  0.22389810D-08 -0.14067585D-02
 -0.22389810D-08 -0.32843819D-02 -0.20683739D-02 -0.27745306D-02  0.00000000D+00
 -0.25057302D-03  0.00000000D+00 -0.10694432D-02 -0.28428947D-08  0.24811802D-02
  0.23787335D-02  0.26487108D-08 -0.36874213D-02  0.71847869D-03 -0.26487108D-08
  0.25940001D-02  0.18350807D-08  0.62661680D-03 -0.21732927D-08  0.10336506D-02
  0.24667095D-02  0.00000000D+00  0.37988702D-02  0.15481178D-02 -0.00000000D+00
  0.98801629D-03  0.00000000D+00  0.20751462D-02 -0.19625726D-01 -0.19241704D+00
 -0.14882356D+00 -0.17339834D-01 -0.54912497D-02 -0.84738664D-02  0.30052258D-08
 -0.17368199D-01 -0.61935141D-01 -0.34684758D-07  0.17689705D-01 -0.16212693D-01
  0.00000000D+00 -0.21247158D-01  0.64125992D-02  0.00000000D+00  0.21462872D-01
  0.91880077D-03  0.33210008D-02 -0.61758129D-04  0.92797162D-09 -0.43524579D-02
  0.55678297D-08 -0.12870037D-01 -0.88070538D-02 -0.11187163D-01 -0.44779619D-08
  0.82076564D-04  0.22389810D-08 -0.35993812D-02 -0.27606388D-02 -0.16453099D-02
 -0.00000000D+00 -0.12190801D-02  0.00000000D+00  0.14319701D-02  0.16583553D-08
 -0.29096658D-02  0.16267131D-02  0.26487108D-08 -0.38463232D-02  0.67854196D-03
  0.26487108D-08 -0.25903904D-02  0.18350807D-08  0.10595106D-02  0.21732927D-08
  0.23741919D-02  0.13652840D-02  0.00000000D+00  0.21732510D-02  0.96668738D-03
  0.00000000D+00  0.21222297D-02  0.00000000D+00 -0.17561534D-02 -0.11150099D+00
  0.16855227D+00 -0.46419220D-01  0.10103728D-02 -0.21603428D-02  0.98831621D-02
  0.13356559D-08 -0.48527758D-02 -0.74972291D-02 -0.39940024D-07  0.33084488D-01
  0.39101497D-02 -0.00000000D+00 -0.92718593D-02  0.24808449D-02 -0.00000000D+00
  0.16918802D-01 -0.34612514D-02 -0.34797687D-02 -0.36455651D-02  0.92797162D-09
  0.51062520D-03  0.18559432D-08 -0.62263290D-02 -0.15440785D-02  0.97817200D-03
  0.67169429D-08 -0.20746756D-02 -0.44779619D-08  0.12581759D-02  0.98635504D-03
  0.62061695D-03  0.00000000D+00  0.44375366D-03  0.00000000D+00 -0.17780307D-02
  0.18952632D-08 -0.10052601D-02 -0.19492493D-02  0.21189686D-08 -0.19153278D-02
 -0.21918728D-02  0.21189686D-08 -0.10062818D-02 -0.00000000D+00  0.14718473D-02
  0.00000000D+00  0.36278732D-02  0.15728485D-02 -0.00000000D+00  0.40801990D-02
  0.92637674D-03 -0.00000000D+00  0.36612843D-02  0.00000000D+00
MO    6     MO 0.0        OCC NO =    0.0000000  ORB. ENERGY =   -0.187757
  0.13796481D-07 -0.18306013D-07 -0.40982345D-08  0.55049210D-08  0.55458311D-08
 -0.00000000D+00 -0.13690473D-07  0.26322341D-01  0.11686989D-07 -0.24174225D-07
  0.43574494D-01  0.12612639D-07  0.00000000D+00  0.42986060D-03  0.00000000D+00
  0.31241095D-07 -0.59033381D-01 -0.20827396D-07  0.40182350D-08 -0.16072940D-08
  0.13394117D-08  0.38450040D-04  0.46398581D-09 -0.94481895D-03  0.25853525D-08
  0.25853525D-08  0.38780288D-08 -0.15462626D-03 -0.00000000D+00  0.56197750D-03
  0.62378579D-08  0.00000000D+00  0.00000000D+00  0.98707964D-04  0.00000000D+00
 -0.89423840D-03  0.28428947D-08 -0.48083101D-02 -0.11845395D-08  0.26487108D-08
 -0.47781932D-02 -0.15892265D-08  0.26487108D-08 -0.48414036D-02 -0.15892265D-08
 -0.99044808D-04  0.86931709D-08 -0.16822748D-01 -0.43465855D-08  0.97192606D-08
 -0.16898548D-01 -0.48596303D-08  0.97192606D-08 -0.16892911D-01 -0.48596303D-08
  0.14144981D-03  0.40043444D-07 -0.38917228D-06 -0.29643896D-06 -0.15276156D-05
  0.44366649D-07 -0.00000000D+00 -0.62107999D-07  0.53338079D-02 -0.33391397D-09
  0.13663692D-06 -0.55015366D+00 -0.63063196D-08  0.15218529D-06 -0.41884602D-01
 -0.66167519D-08 -0.10413698D-07  0.25024273D-01 -0.10413698D-07 -0.20894822D-07
 -0.14465646D-07 -0.15001411D-07 -0.12673841D-01  0.64958013D-08 -0.15467700D-02
 -0.21846229D-06 -0.74975223D-07 -0.74975223D-07 -0.89497577D-02  0.11194905D-07
 -0.98962958D-06  0.62378579D-08  0.12475716D-07  0.12475716D-07 -0.16445853D-02
  0.00000000D+00 -0.72458949D-03  0.13977566D-07  0.28122446D-01 -0.14214474D-08
  0.12713812D-07 -0.39302214D-01 -0.00000000D+00  0.11124585D-07  0.28066963D-01
 -0.15892265D-08 -0.23787453D-02  0.65198782D-08  0.15399865D-01 -0.21732927D-08
 -0.14578891D-07 -0.11643091D-02 -0.48596303D-08 -0.14578891D-07  0.15551867D-01
 -0.00000000D+00 -0.12528725D-02 -0.28602460D-07  0.43392031D-07  0.59287793D-06
  0.72114465D-06  0.38820818D-07  0.00000000D+00  0.29718344D-07 -0.34416531D-01
  0.60104515D-08  0.26171226D-06  0.39422348D+00  0.19970012D-07  0.16872717D-06
 -0.22337850D-01  0.99251279D-08 -0.10413698D-07  0.13712508D-01 -0.00000000D+00
  0.29467057D-08 -0.34824703D-08 -0.56255290D-08 -0.41059032D-03  0.55678297D-08
 -0.23421322D-02  0.62048460D-07  0.28438878D-07  0.24560849D-07  0.50900505D-01
  0.89559238D-08 -0.17276425D-02  0.18713574D-07  0.00000000D+00  0.62378579D-08
  0.94575432D-02  0.00000000D+00 -0.67407945D-03 -0.85286842D-08 -0.21834990D-01
  0.23690789D-09 -0.90056166D-08 -0.27758853D-01  0.15892265D-08 -0.95353588D-08
 -0.22054964D-01  0.52974216D-09 -0.55763146D-03 -0.65198782D-08 -0.72819129D-02
  0.00000000D+00 -0.97192606D-08  0.27609746D-02  0.00000000D+00 -0.97192606D-08
 -0.69119834D-02  0.00000000D+00 -0.80834717D-03 -0.17497976D-07  0.38035828D-06
 -0.30190328D-06  0.92207427D-06 -0.12755411D-06 -0.00000000D+00 -0.36730537D-07
 -0.82142714D-02  0.20034838D-08 -0.18918959D-06  0.44006164D+00 -0.12612639D-07
 -0.33083760D-07  0.37220784D-02 -0.66167519D-08 -0.10413698D-07  0.12648311D-01
 -0.10413698D-07  0.13661999D-07  0.13929881D-07  0.14733528D-07 -0.86360301D-02
  0.46398581D-09  0.11058893D-02  0.91780014D-07  0.41365640D-07  0.42658317D-07
 -0.61051913D-01  0.44779619D-08  0.47304630D-02 -0.37427147D-07 -0.37427147D-07
 -0.37427147D-07 -0.11476367D-01  0.00000000D+00 -0.21996015D-02  0.20374079D-07
 -0.18603664D-01 -0.47381579D-09  0.22249171D-07 -0.23443693D-01 -0.52974216D-09
  0.21719428D-07 -0.18670616D-01 -0.52974216D-09 -0.10446243D-02 -0.10866464D-07
 -0.29858152D-02 -0.21732927D-08 -0.97192606D-08  0.89685692D-02 -0.48596303D-08
 -0.97192606D-08 -0.28705107D-02 -0.48596303D-08 -0.47770560D-03
MO    7     MO 0.0        OCC NO =    0.0000000  ORB. ENERGY =   -0.183545
  0.96506215D-03  0.88936992D-02  0.25527315D-02 -0.19770704D-02 -0.25108085D-02
 -0.14657054D-03  0.25748131D-01  0.11686989D-07 -0.40157366D-02  0.43002382D-01
  0.19970012D-07 -0.32895066D-02 -0.67891845D-03 -0.00000000D+00 -0.64343281D-03
 -0.56954755D-01 -0.31241095D-07  0.49483811D-02 -0.17754705D-03 -0.61085744D-03
  0.21859332D-03 -0.46398581D-08 -0.11166078D-02  0.46398581D-09 -0.83311951D-03
 -0.51726311D-03 -0.11325163D-02 -0.00000000D+00  0.81157910D-03 -0.00000000D+00
 -0.88266312D-03 -0.10524639D-02 -0.54548196D-03 -0.00000000D+00 -0.10583123D-02
  0.00000000D+00 -0.49214080D-02 -0.21321710D-08  0.26841072D-03 -0.49196905D-02
 -0.21189686D-08  0.28847745D-03 -0.46962532D-02 -0.21189686D-08  0.39917714D-03
 -0.00000000D+00 -0.16628439D-01 -0.65198782D-08  0.14267841D-02 -0.16629995D-01
 -0.97192606D-08  0.13203178D-02 -0.16995357D-01 -0.97192606D-08  0.12571086D-02
  0.00000000D+00 -0.10534030D+00 -0.68855435D+00  0.11486507D-01  0.33938748D+00
 -0.26087390D-01  0.49082192D-03  0.10576403D+00  0.23040064D-07 -0.38268704D-01
 -0.29663844D+00 -0.20810855D-06 -0.99235497D-01 -0.20700071D+00 -0.33083760D-08
 -0.33288929D-01  0.97808578D-02  0.10413698D-07 -0.24835108D-02  0.12691443D-01
  0.42017794D-02  0.74884229D-03 -0.15311532D-07 -0.57849626D-02  0.27839149D-08
  0.56616014D-01  0.17049239D-01  0.15463086D-01 -0.22389810D-08 -0.68639991D-02
  0.22389810D-08 -0.12711401D-01 -0.63533019D-02 -0.55397355D-02 -0.00000000D+00
 -0.19607620D-02 -0.00000000D+00 -0.21086272D-01  0.12319210D-07  0.15031744D-02
 -0.16794818D-01 -0.16422007D-07 -0.38583145D-02 -0.15437440D-01  0.12713812D-07
  0.16371496D-02 -0.18350807D-08 -0.10628714D-01  0.65198782D-08  0.76361248D-03