[Molden Format]
[Title]
 Molden2AIM, Version 3.1.0 (02/25/2015)           Time: Wed Apr 23 15:22:45 2025

[Atoms] Angs
E+       1       9     0.00000000     0.00000000     4.00000000
E+       2       1     0.00000000     0.00000000     0.00000000
E+       3       9    -0.95000000     0.00000000     0.00000000
E+       4       9     0.95000000     0.00000000     0.00000000
[GTO]
    1 0
 S   1 1.0
    0.1706471990D-01      0.1000000000D+01
 S   1 1.0
    0.4342700594D-01      0.1000000000D+01
 S   1 1.0
    0.1105148433D+00      0.1000000000D+01
 S   1 1.0
    0.2812427502D+00      0.1000000000D+01
 S   1 1.0
    0.7157181984D+00      0.1000000000D+01
 S   1 1.0
    0.1821389313D+01      0.1000000000D+01
 P   1 1.0
    0.4963129460D-01      0.1000000000D+01
 P   1 1.0
    0.1242074681D+00      0.1000000000D+01
 P   1 1.0
    0.3108420859D+00      0.1000000000D+01
 P   1 1.0
    0.7779145957D+00      0.1000000000D+01
 D   1 1.0
    0.9506480910D-01      0.1000000000D+01
 D   1 1.0
    0.2336777293D+00      0.1000000000D+01
 D   1 1.0
    0.5744005767D+00      0.1000000000D+01
 F   1 1.0
    0.1595675148D+00      0.1000000000D+01
 F   1 1.0
    0.4273064585D+00      0.1000000000D+01

    2 0
 S   1 1.0
    0.1706471990D-01      0.1000000000D+01
 S   1 1.0
    0.4342700594D-01      0.1000000000D+01
 S   1 1.0
    0.1105148433D+00      0.1000000000D+01
 S   1 1.0
    0.2812427502D+00      0.1000000000D+01
 S   1 1.0
    0.7157181984D+00      0.1000000000D+01
 S   1 1.0
    0.1821389313D+01      0.1000000000D+01
 P   1 1.0
    0.4963129460D-01      0.1000000000D+01
 P   1 1.0
    0.1242074681D+00      0.1000000000D+01
 P   1 1.0
    0.3108420859D+00      0.1000000000D+01
 P   1 1.0
    0.7779145957D+00      0.1000000000D+01
 D   1 1.0
    0.9506480910D-01      0.1000000000D+01
 D   1 1.0
    0.2336777293D+00      0.1000000000D+01
 D   1 1.0
    0.5744005767D+00      0.1000000000D+01
 F   1 1.0
    0.1595675148D+00      0.1000000000D+01
 F   1 1.0
    0.4273064585D+00      0.1000000000D+01

    3 0
 S   1 1.0
    0.1706471990D-01      0.1000000000D+01
 S   1 1.0
    0.4342700594D-01      0.1000000000D+01
 S   1 1.0
    0.1105148433D+00      0.1000000000D+01
 S   1 1.0
    0.2812427502D+00      0.1000000000D+01
 S   1 1.0
    0.7157181984D+00      0.1000000000D+01
 S   1 1.0
    0.1821389313D+01      0.1000000000D+01
 P   1 1.0
    0.4963129460D-01      0.1000000000D+01
 P   1 1.0
    0.1242074681D+00      0.1000000000D+01
 P   1 1.0
    0.3108420859D+00      0.1000000000D+01
 P   1 1.0
    0.7779145957D+00      0.1000000000D+01
 D   1 1.0
    0.9506480910D-01      0.1000000000D+01
 D   1 1.0
    0.2336777293D+00      0.1000000000D+01
 D   1 1.0
    0.5744005767D+00      0.1000000000D+01
 F   1 1.0
    0.1595675148D+00      0.1000000000D+01
 F   1 1.0
    0.4273064585D+00      0.1000000000D+01

    4 0
 S   1 1.0
    0.1706471990D-01      0.1000000000D+01
 S   1 1.0
    0.4342700594D-01      0.1000000000D+01
 S   1 1.0
    0.1105148433D+00      0.1000000000D+01
 S   1 1.0
    0.2812427502D+00      0.1000000000D+01
 S   1 1.0
    0.7157181984D+00      0.1000000000D+01
 S   1 1.0
    0.1821389313D+01      0.1000000000D+01
 P   1 1.0
    0.4963129460D-01      0.1000000000D+01
 P   1 1.0
    0.1242074681D+00      0.1000000000D+01
 P   1 1.0
    0.3108420859D+00      0.1000000000D+01
 P   1 1.0
    0.7779145957D+00      0.1000000000D+01
 D   1 1.0
    0.9506480910D-01      0.1000000000D+01
 D   1 1.0
    0.2336777293D+00      0.1000000000D+01
 D   1 1.0
    0.5744005767D+00      0.1000000000D+01
 F   1 1.0
    0.1595675148D+00      0.1000000000D+01
 F   1 1.0
    0.4273064585D+00      0.1000000000D+01


[MO]
 Ene=         -0.34124900
 Spin= Alpha
 Occup=        1.00000000
    1       -0.0280421800
    2       -0.4685426000
    3       -0.2569010900
    4        0.0608917800
    5        0.0741878000
    6        0.0099504300
    7        0.0284637400
    8        0.0000001600
    9        0.1696134100
   10        0.0063468200
   11        0.0000001100
   12        0.0359826100
   13        0.0040062400
   14        0.0000000400
   15        0.0259648100
   16       -0.0024097900
   17       -0.0000000200
   18       -0.0146534400
   19        0.0138317100
   20        0.0150392100
   21       -0.0495217700
   22       -0.0000000100
   23       -0.0131833600
   24       -0.0000000700
   25        0.0194482000
   26        0.0201278000
   27        0.0184378500
   28       -0.0000000000
   29        0.0003116800
   30       -0.0000000000
   31        0.0099125800
   32        0.0097137000
   33        0.0108383000
   34       -0.0000000000
   35        0.0000698800
   36       -0.0000000000
   37        0.0021097100
   38       -0.0000000100
   39        0.0313118900
   40        0.0008305500
   41       -0.0000000000
   42        0.0089769400
   43        0.0041035000
   44        0.0000000100
   45        0.0086616000
   46        0.0000000000
   47       -0.0010612100
   48       -0.0000000100
   49       -0.0068200400
   50       -0.0004545300
   51       -0.0000000100
   52       -0.0027384800
   53       -0.0007737600
   54       -0.0000000100
   55       -0.0028102700
   56       -0.0000000000
   57       -0.0214672500
   58        0.4014055100
   59        0.0265200300
   60        0.1536880500
   61        0.0053333200
   62        0.0001790700
   63       -0.0661151600
   64        0.0000000000
   65        0.0090865100
   66       -0.3091426800
   67        0.0000000700
   68        0.3628111700
   69        0.0286530200
   70       -0.0000000000
   71        0.0194821600
   72       -0.0002470100
   73       -0.0000000000
   74       -0.0016633600
   75       -0.0058905100
   76        0.0085944000
   77        0.0099413300
   78       -0.0000000100
   79        0.0145405300
   80       -0.0000000100
   81        0.0533163800
   82        0.0217460400
   83        0.0280817400
   84        0.0000000100
   85        0.0038957000
   86       -0.0000000100
   87        0.0013466300
   88        0.0024986500
   89        0.0019361100
   90       -0.0000000000
   91        0.0003116300
   92        0.0000000000
   93        0.0675352300
   94       -0.0000000200
   95       -0.0701307400
   96        0.0449288500
   97        0.0000000100
   98        0.0398709000
   99        0.0352730800
  100       -0.0000000100
  101       -0.0308382300
  102        0.0000000100
  103        0.0029832100
  104       -0.0000000000
  105       -0.0058641700
  106       -0.0018709600
  107       -0.0000000000
  108        0.0023659100
  109       -0.0022954000
  110       -0.0000000000
  111       -0.0026429900
  112        0.0000000000
  113       -0.0019940100
  114       -0.6359026000
  115       -0.1707685600
  116       -0.1765518200
  117        0.0559381000
  118        0.0054885900
  119       -0.1144949100
  120        0.0000000700
  121       -0.1296458800
  122       -0.1677811400
  123       -0.0000000300
  124       -0.2702712100
  125        0.0011386000
  126        0.0000000100
  127       -0.0237135500
  128        0.0006475300
  129       -0.0000000100
  130        0.0139458800
  131       -0.0094798200
  132        0.0101921900
  133       -0.0563777300
  134        0.0000000200
  135       -0.0311970400
  136        0.0000000500
  137       -0.0347585700
  138       -0.0147584100
  139       -0.0217574500
  140        0.0000000000
  141       -0.0178341000
  142        0.0000000000
  143        0.0089489900
  144        0.0087768300
  145        0.0100631200
  146       -0.0000000000
  147       -0.0008618000
  148        0.0000000000
  149        0.0480297000
  150        0.0000000100
  151        0.0360483300
  152        0.0240113400
  153        0.0000000100
  154        0.0231592300
  155        0.0154737800
  156        0.0000000100
  157        0.0219818300
  158        0.0000000100
  159       -0.0039812600
  160       -0.0000000000
  161        0.0127652100
  162       -0.0009220300
  163       -0.0000000000
  164        0.0039014600
  165       -0.0011237400
  166       -0.0000000000
  167        0.0051470900
  168       -0.0000000000
  169        0.0079236800
  170       -0.1527867900
  171        0.0499088400
  172        0.0780015000
  173        0.0130861100
  174        0.0031900800
  175        0.0282728300
  176        0.0000000300
  177       -0.0365137800
  178       -0.0199597300
  179       -0.0000000700
  180       -0.2741725600
  181        0.0191924200
  182        0.0000000100
  183       -0.0179524200
  184       -0.0054805000
  185       -0.0000000000
  186        0.0094736000
  187        0.0148605100
  188        0.0237804300
  189        0.0131403700
  190       -0.0000000000
  191        0.0246144000
  192        0.0000000200
  193        0.0236377600
  194        0.0168589200
  195        0.0224179100
  196        0.0000000100
  197        0.0214796200
  198       -0.0000000100
  199        0.0006268000
  200        0.0009127500
  201        0.0011311700
  202        0.0000000000
  203        0.0007758100
  204        0.0000000000
  205        0.0102626300
  206        0.0000000200
  207        0.0481986300
  208        0.0061544900
  209        0.0000000100
  210        0.0255840300
  211        0.0056780000
  212        0.0000000100
  213        0.0227581400
  214       -0.0000000000
  215       -0.0067628000
  216       -0.0000000000
  217        0.0103030800
  218       -0.0027154500
  219       -0.0000000000
  220        0.0028143600
  221       -0.0029657800
  222       -0.0000000000
  223        0.0045327700
  224        0.0000000000
 Ene=         -0.26381600
 Spin= Alpha
 Occup=        0.00000000
    1        0.1144991200
    2        0.6891507000
    3        0.2821386300
    4       -0.0704729800
    5       -0.0848152100
    6       -0.0102275800
    7        0.0717332300
    8       -0.0000003800
    9        0.0085466900
   10        0.0325494400
   11       -0.0000002500
   12        0.0198463200
   13        0.0057792800
   14       -0.0000000400
   15        0.0070231100
   16       -0.0070265900
   17        0.0000000400
   18       -0.0066856500
   19       -0.0165791700
   20       -0.0143547200
   21       -0.0350761100
   22       -0.0000000100
   23       -0.0215256600
   24        0.0000000300
   25       -0.0305212200
   26       -0.0302662300
   27       -0.0334115700
   28       -0.0000000000
   29        0.0006854600
   30       -0.0000000100
   31       -0.0137318900
   32       -0.0138179800
   33       -0.0126769700
   34       -0.0000000000
   35        0.0001101700
   36        0.0000000000
   37       -0.0098637800
   38        0.0000000600
   39       -0.0002957800
   40       -0.0045594900
   41        0.0000000300
   42       -0.0017982100
   43       -0.0001647300
   44        0.0000000300
   45       -0.0023665800
   46        0.0000000000
   47       -0.0066188900
   48        0.0000000400
   49       -0.0055294300
   50       -0.0029384000
   51        0.0000000200
   52       -0.0024961600
   53       -0.0032997500
   54        0.0000000200
   55       -0.0024959200
   56       -0.0000000000
   57       -0.0271235500
   58        0.9409372000
   59       -0.0440389000
   60        0.0651599100
   61        0.0286283500
   62        0.0000850400
   63       -0.4995551300
   64        0.0000000400
   65        0.0500818700
   66       -0.4946632600
   67       -0.0000001800
   68       -0.1619181600
   69        0.0339859800
   70       -0.0000000100
   71        0.0013378400
   72       -0.0014379700
   73        0.0000000000
   74        0.0014162900
   75       -0.0162375400
   76        0.0236813700
   77        0.0310664400
   78        0.0000000300
   79       -0.0729114200
   80        0.0000000100
   81        0.0062574900
   82        0.0268322300
   83        0.0284876900
   84        0.0000000100
   85       -0.0080515000
   86        0.0000000000
   87        0.0130637900
   88        0.0074785000
   89        0.0070031100
   90        0.0000000000
   91       -0.0003489100
   92       -0.0000000000
   93        0.2249745000
   94        0.0000000500
   95        0.0500528100
   96        0.1284721700
   97       -0.0000000200
   98       -0.0256517500
   99        0.1010728000
  100        0.0000000200
  101        0.0222663800
  102        0.0000000100
  103        0.0031093600
  104        0.0000000000
  105        0.0032255800
  106       -0.0042268000
  107       -0.0000000000
  108        0.0014691400
  109       -0.0058975300
  110        0.0000000000
  111        0.0014126200
  112        0.0000000000
  113       -0.1238110000
  114       -2.1871053700
  115        0.0588874700
  116       -0.3128000500
  117        0.0993390500
  118        0.0098769800
  119       -0.3264830000
  120        0.0000001200
  121       -0.2696915500
  122       -0.2386825200
  123        0.0000002300
  124        0.0797247600
  125       -0.0001680200
  126        0.0000000200
  127       -0.0204479400
  128       -0.0062278500
  129       -0.0000000100
  130        0.0031626900
  131       -0.0711794700
  132       -0.0371007100
  133       -0.0997938200
  134        0.0000000200
  135       -0.0400466700
  136        0.0000000200
  137       -0.0823571900
  138       -0.0210326400
  139       -0.0331905800
  140        0.0000000200
  141        0.0036710400
  142        0.0000000100
  143        0.0151353500
  144        0.0175012300
  145        0.0176068500
  146        0.0000000000
  147       -0.0003792600
  148       -0.0000000000
  149        0.1001713000
  150       -0.0000000300
  151       -0.0646559800
  152        0.0559593800
  153       -0.0000000100
  154       -0.0352799500
  155        0.0456631300
  156       -0.0000000100
  157       -0.0265438200
  158        0.0000000000
  159       -0.0111820400
  160       -0.0000000100
  161       -0.0023296600
  162       -0.0021913500
  163       -0.0000000000
  164       -0.0008306900
  165       -0.0029314900
  166       -0.0000000000
  167       -0.0014170100
  168        0.0000000000
  169        0.0275695300
  170        0.3183497200
  171       -0.1884498300
  172        0.4349848200
  173       -0.0024543000
  174        0.0038437800
  175       -0.0643406400
  176       -0.0000000500
  177        0.0436672900
  178       -0.1628031500
  179        0.0000001100
  180        0.1771327600
  181        0.0252347900
  182       -0.0000000000
  183        0.0047276600
  184       -0.0104238400
  185       -0.0000000100
  186        0.0017927200
  187        0.0908770100
  188        0.0976290300
  189        0.1250797800
  190        0.0000000100
  191       -0.0234549600
  192       -0.0000000300
  193        0.1030014700
  194        0.0601182900
  195        0.0773577200
  196       -0.0000000000
  197       -0.0114813200
  198       -0.0000000100
  199       -0.0052457000
  200       -0.0014450800
  201       -0.0028753200
  202        0.0000000000
  203       -0.0003539400
  204        0.0000000000
  205        0.0889019300
  206       -0.0000000400
  207       -0.0077215800
  208        0.0467157700
  209       -0.0000000200
  210       -0.0073014400
  211        0.0381602100
  212       -0.0000000200
  213       -0.0047943400
  214        0.0000000100
  215       -0.0180739400
  216       -0.0000000100
  217        0.0037980600
  218       -0.0077396800
  219       -0.0000000000
  220        0.0026149000
  221       -0.0087314000
  222       -0.0000000000
  223        0.0018852900
  224        0.0000000000
 Ene=         -0.24120700
 Spin= Alpha
 Occup=        0.00000000
    1        0.0000000700
    2        0.0000004500
    3        0.0000002400
    4       -0.0000000500
    5       -0.0000000600
    6       -0.0000000100
    7       -0.0000002400
    8        0.6434094700
    9       -0.0000000800
   10       -0.0000001100
   11        0.3487465600
   12        0.0000000700
   13       -0.0000000100
   14        0.0080476900
   15       -0.0000000200
   16        0.0000000200
   17       -0.0510513500
   18       -0.0000000000
   19        0.0000000500
   20       -0.0000001200
   21        0.0000000600
   22       -0.0224860300
   23        0.0000000500
   24       -0.1457024400
   25       -0.0000000400
   26       -0.0000000400
   27       -0.0000000300
   28        0.0046769300
   29       -0.0000000000
   30        0.0255655100
   31       -0.0000000100
   32       -0.0000000100
   33       -0.0000000100
   34       -0.0009460800
   35        0.0000000000
   36       -0.0047658900
   37        0.0000000400
   38       -0.1745744600
   39       -0.0000000800
   40        0.0000000200
   41       -0.0780367800
   42       -0.0000000400
   43        0.0000000100
   44       -0.0546079900
   45       -0.0000000100
   46        0.0046489200
   47        0.0000000200
   48       -0.0667288600
   49       -0.0000000100
   50        0.0000000100
   51       -0.0297038900
   52       -0.0000000000
   53        0.0000000100
   54       -0.0330943700
   55       -0.0000000100
   56       -0.0008042700
   57       -0.0000006200
   58       -0.0000095900
   59       -0.0000015400
   60       -0.0000037600
   61        0.0000000800
   62        0.0000000000
   63        0.0000000800
   64       -0.2115336300
   65       -0.0000011500
   66        0.0000042700
   67        3.4816887200
   68       -0.0000026200
   69       -0.0000001100
   70        0.0652960800
   71       -0.0000001300
   72       -0.0000000000
   73       -0.0177089500
   74        0.0000000000
   75       -0.0000005300
   76       -0.0000002800
   77       -0.0000005600
   78        0.0657505100
   79        0.0000002200
   80       -0.0721511000
   81       -0.0000011900
   82       -0.0000003600
   83       -0.0000003800
   84        0.0231316400
   85       -0.0000000400
   86       -0.0216542100
   87        0.0000000100
   88        0.0000000200
   89        0.0000000200
   90        0.0004043300
   91        0.0000000000
   92        0.0044323400
   93       -0.0000003300
   94       -0.8323235800
   95        0.0000004200
   96       -0.0000003300
   97        0.4964339900
   98       -0.0000003500
   99       -0.0000002700
  100       -0.3717184900
  101        0.0000002000
  102        0.0281637600
  103       -0.0000000200
  104       -0.0496528500
  105        0.0000000200
  106        0.0000000000
  107       -0.0034658700
  108       -0.0000000200
  109        0.0000000100
  110       -0.0227618300
  111        0.0000000100
  112        0.0014918900
  113        0.0000003200
  114        0.0000049100
  115        0.0000034300
  116        0.0000032800
  117       -0.0000000800
  118        0.0000000000
  119        0.0000010000
  120        0.6142504400
  121        0.0000007900
  122        0.0000024400
  123       -2.6041867400
  124        0.0000019400
  125        0.0000001800
  126        0.0544136500
  127        0.0000000800
  128        0.0000000100
  129       -0.0099188100
  130       -0.0000000100
  131        0.0000002600
  132        0.0000000600
  133        0.0000003600
  134        0.0125825500
  135        0.0000002200
  136        0.1671432700
  137        0.0000006600
  138        0.0000003800
  139        0.0000004400
  140       -0.1522207500
  141        0.0000001200
  142        0.0041374800
  143       -0.0000000200
  144       -0.0000000200
  145       -0.0000000200
  146       -0.0049075100
  147        0.0000000100
  148        0.0016034400
  149       -0.0000005800
  150        0.6136480700
  151       -0.0000002200
  152       -0.0000002900
  153        0.3571803900
  154       -0.0000001400
  155       -0.0000002400
  156        0.2931795100
  157       -0.0000001200
  158        0.0243943500
  159        0.0000000300
  160        0.0215402800
  161       -0.0000000200
  162        0.0000000100
  163       -0.0044908400
  164        0.0000000000
  165        0.0000000100
  166        0.0067950200
  167       -0.0000000100
  168       -0.0002629400
  169        0.0000001200
  170        0.0000042600
  171       -0.0000018400
  172        0.0000009900
  173        0.0000000200
  174        0.0000000000
  175       -0.0000009200
  176        0.3079920700
  177        0.0000003200
  178       -0.0000002800
  179       -2.7819388800
  180        0.0000019000
  181       -0.0000002400
  182        0.0220659500
  183        0.0000000400
  184       -0.0000000000
  185       -0.0066483000
  186       -0.0000000100
  187        0.0000003300
  188        0.0000002300
  189        0.0000003500
  190        0.0640397700
  191       -0.0000001400
  192        0.0729433900
  193        0.0000001800
  194        0.0000000200
  195        0.0000000100
  196        0.1768888200
  197       -0.0000001500
  198       -0.0281861400
  199        0.0000000100
  200        0.0000000000
  201        0.0000000000
  202        0.0057657200
  203       -0.0000000100
  204        0.0034068000
  205        0.0000002200
  206        0.5911165600
  207       -0.0000004200
  208        0.0000001200
  209        0.3317780200
  210       -0.0000002100
  211        0.0000001000
  212        0.2714967600
  213       -0.0000002000
  214       -0.0034312000
  215        0.0000000000
  216        0.0160141100
  217       -0.0000000300
  218       -0.0000000000
  219       -0.0085179500
  220       -0.0000000000
  221        0.0000000000
  222        0.0059930700
  223       -0.0000000200
  224        0.0017487900
 Ene=         -0.24086400
 Spin= Alpha
 Occup=        0.00000000
    1       -0.0829089400
    2       -0.2725997700
    3       -0.0697559100
    4        0.0216603400
    5        0.0263334900
    6        0.0024678200
    7        0.4867917700
    8        0.0000004100
    9       -0.0638728800
   10        0.2327675600
   11        0.0000002400
   12       -0.0467540600
   13        0.0201108800
   14        0.0000000100
   15       -0.0107721800
   16       -0.0399960400
   17       -0.0000000300
   18        0.0104212300
   19       -0.0052285800
   20        0.0258837300
   21        0.0386249600
   22       -0.0000001100
   23       -0.0825215200
   24       -0.0000000400
   25        0.0173496300
   26        0.0120283000
   27        0.0185839200
   28        0.0000000000
   29        0.0064162700
   30        0.0000000100
   31        0.0051490100
   32        0.0061676100
   33        0.0045114900
   34       -0.0000000000
   35       -0.0006972900
   36       -0.0000000000
   37       -0.0901669600
   38       -0.0000001000
   39        0.0006825500
   40       -0.0413679700
   41       -0.0000000400
   42        0.0057411000
   43       -0.0279917500
   44       -0.0000000400
   45        0.0003611000
   46        0.0000000200
   47       -0.0446018000
   48       -0.0000000400
   49        0.0081021500
   50       -0.0197619300
   51       -0.0000000200
   52        0.0032656400
   53       -0.0210546800
   54       -0.0000000200
   55        0.0040803700
   56       -0.0000000000
   57        0.3734979600
   58        4.0659961200
   59        0.5721568500
   60        1.2455602900
   61       -0.0314195800
   62       -0.0003146500
   63       -0.5770669900
   64       -0.0000002900
   65        0.5525932200
   66       -3.6847931000
   67        0.0000011100
   68        0.7567401400
   69       -0.0230116700
   70        0.0000000100
   71        0.0444754700
   72       -0.0002942700
   73       -0.0000000100
   74       -0.0000126900
   75        0.1357126700
   76        0.0820289600
   77        0.2155602100
   78        0.0000001700
   79       -0.4383883900
   80       -0.0000000800
   81        0.3867586600
   82        0.1074050300
   83        0.1145324600
   84        0.0000000700
   85       -0.0324104600
   86       -0.0000000100
   87       -0.0030996200
   88       -0.0103583500
   89       -0.0107979400
   90        0.0000000000
   91       -0.0021601900
   92        0.0000000000
   93        0.4022143600
   94       -0.0000002900
   95       -0.0986911500
   96        0.3490843000
   97        0.0000001600
   98        0.1080199200
   99        0.2500421200
  100       -0.0000001400
  101       -0.0507945000
  102        0.0000000700
  103        0.0054360700
  104       -0.0000000200
  105       -0.0042225000
  106        0.0022629200
  107       -0.0000000000
  108        0.0075045400
  109       -0.0045603600
  110       -0.0000000100
  111       -0.0012821300
  112        0.0000000000
  113       -0.4271548600
  114       -3.8013690000
  115       -2.4057274100
  116       -1.9250039100
  117        0.0417825300
  118       -0.0004794000
  119       -0.7378122000
  120        0.0000005100
  121       -0.7389380500
  122       -1.4960746900
  123       -0.0000006900
  124       -0.7832922800
  125       -0.0986169100
  126        0.0000000500
  127       -0.0644521400
  128       -0.0180228400
  129        0.0000000000
  130       -0.0060252100
  131       -0.1739506200
  132       -0.0175691700
  133       -0.2122487600
  134        0.0000001000
  135       -0.1916139200
  136        0.0000001700
  137       -0.4095119800
  138       -0.2275728500
  139       -0.2889337800
  140       -0.0000000200
  141       -0.0553703500
  142        0.0000000400
  143        0.0071763300
  144        0.0098778700
  145        0.0132480300
  146        0.0000000000
  147       -0.0043532700
  148       -0.0000000000
  149        0.3180597300
  150        0.0000002300
  151       -0.0508353400
  152        0.1689608400
  153        0.0000001500
  154       -0.0183123700
  155        0.1293093600
  156        0.0000001200
  157       -0.0154794900
  158        0.0000000300
  159       -0.0245464800
  160        0.0000000200
  161       -0.0156063600
  162       -0.0070927700
  163        0.0000000100
  164       -0.0127945200
  165       -0.0103865200
  166        0.0000000100
  167       -0.0076918900
  168        0.0000000000
  169        0.1300362400
  170        0.1184671900
  171        1.9262216400
  172        0.4551319800
  173       -0.0590630900
  174       -0.0047831900
  175       -0.0526454600
  176       -0.0000000100
  177        0.3041270600
  178       -0.6241331100
  179       -0.0000010800
  180       -0.3335428000
  181        0.0472736400
  182       -0.0000000100
  183        0.0371677900
  184       -0.0024489500
  185       -0.0000000000
  186        0.0037165300
  187       -0.0572094200
  188       -0.1125369800
  189       -0.0302102600
  190        0.0000000800
  191       -0.0940803300
  192       -0.0000000300
  193        0.1146589200
  194        0.0778072000
  195        0.1257452600
  196        0.0000000800
  197        0.0200174100
  198       -0.0000000400
  199       -0.0132227200
  200       -0.0095886900
  201       -0.0114051900
  202        0.0000000000
  203        0.0020746600
  204        0.0000000000
  205        0.0697989000
  206        0.0000001800
  207        0.2324374200
  208        0.0402646300
  209        0.0000000900
  210        0.1168255100
  211        0.0185697700
  212        0.0000000800
  213        0.1020414900
  214        0.0000000200
  215       -0.0100176900
  216       -0.0000000000
  217        0.0246457800
  218       -0.0012561300
  219       -0.0000000100
  220        0.0085923100
  221       -0.0055412000
  222       -0.0000000000
  223        0.0115856500
  224        0.0000000000
 Ene=         -0.21556500
 Spin= Alpha
 Occup=        0.00000000
    1        0.2417571500
    2        0.0301881100
    3        0.0667624900
    4       -0.0112735400
    5       -0.0222939200
    6       -0.0023912700
    7        0.1740042700
    8        0.0000001000
    9        0.4583604200
   10        0.0797095400
   11       -0.0000000000
   12        0.1436493300
   13        0.0058304200
   14        0.0000000000
   15        0.0340071700
   16       -0.0131555200
   17       -0.0000000000
   18       -0.0325988300
   19        0.0204248800
   20        0.0226754500
   21       -0.0838357200
   22       -0.0000000400
   23       -0.0307878200
   24       -0.0000001400
   25       -0.0109230300
   26       -0.0096827200
   27       -0.0078622800
   28        0.0000000000
   29        0.0022098300
   30        0.0000000100
   31       -0.0041499100
   32       -0.0044810900
   33       -0.0039454200
   34       -0.0000000000
   35       -0.0002902600
   36       -0.0000000000
   37       -0.0325983700
   38       -0.0000000100
   39       -0.0091581500
   40       -0.0148603700
   41       -0.0000000000
   42       -0.0112599400
   43       -0.0092529200
   44        0.0000000200
   45       -0.0114022200
   46        0.0000000100
   47       -0.0150899400
   48       -0.0000000000
   49       -0.0282165700
   50       -0.0066992500
   51       -0.0000000000
   52       -0.0120492700
   53       -0.0072252100
   54       -0.0000000000
   55       -0.0122343500
   56       -0.0000000000
   57        0.3082931200
   58        2.1493761100
   59        0.3239551400
   60        0.6029708100
   61       -0.0152538600
   62        0.0000983900
   63        0.4998080000
   64       -0.0000000000
   65        0.2246696200
   66       -1.4075919100
   67        0.0000004600
   68       -0.2673190300
   69       -0.0227914600
   70        0.0000000100
   71        0.0245394900
   72        0.0019072300
   73       -0.0000000000
   74        0.0028788500
   75        0.0647394500
   76        0.0566150400
   77        0.0687774100
   78        0.0000000100
   79       -0.1022967500
   80       -0.0000000400
   81        0.1885903200
   82        0.0590239900
   83        0.0683960300
   84        0.0000000100
   85       -0.0062830300
   86       -0.0000000100
   87       -0.0052652400
   88       -0.0033158400
   89       -0.0044478900
   90        0.0000000000
   91       -0.0002319200
   92        0.0000000000
   93       -0.0451417300
   94       -0.0000001200
   95        0.1047318500
   96        0.0449036100
   97        0.0000000500
   98       -0.0696078500
   99        0.0135628000
  100       -0.0000000500
  101        0.0489672200
  102        0.0000000200
  103        0.0028832600
  104       -0.0000000100