[Molden Format]
[Atoms] Angs
E+       1       9     0.00000000     0.00000000     4.00000000
E+       2       1     0.00000000     0.00000000     0.00000000
E+       3       9    -0.95000000     0.00000000     0.00000000
E+       4       9     0.95000000     0.00000000     0.00000000
[GTO]
  1 0
s  1 1.00
   1.7064719900E-02   1.0000000000E+00
s  1 1.00
   4.3427005944E-02   1.0000000000E+00
s  1 1.00
   1.1051484327E-01   1.0000000000E+00
s  1 1.00
   2.8124275018E-01   1.0000000000E+00
s  1 1.00
   7.1571819843E-01   1.0000000000E+00
s  1 1.00
   1.8213893131E+00   1.0000000000E+00
p  1 1.00
   4.9631294600E-02   1.0000000000E+00
p  1 1.00
   1.2420746812E-01   1.0000000000E+00
p  1 1.00
   3.1084208586E-01   1.0000000000E+00
p  1 1.00
   7.7791459566E-01   1.0000000000E+00
d  1 1.00
   9.5064809100E-02   1.0000000000E+00
d  1 1.00
   2.3367772930E-01   1.0000000000E+00
d  1 1.00
   5.7440057670E-01   1.0000000000E+00
f  1 1.00
   1.5956751480E-01   1.0000000000E+00
f  1 1.00
   4.2730645850E-01   1.0000000000E+00
 
  2 0
s  1 1.00
   1.7064719900E-02   1.0000000000E+00
s  1 1.00
   4.3427005944E-02   1.0000000000E+00
s  1 1.00
   1.1051484327E-01   1.0000000000E+00
s  1 1.00
   2.8124275018E-01   1.0000000000E+00
s  1 1.00
   7.1571819843E-01   1.0000000000E+00
s  1 1.00
   1.8213893131E+00   1.0000000000E+00
p  1 1.00
   4.9631294600E-02   1.0000000000E+00
p  1 1.00
   1.2420746812E-01   1.0000000000E+00
p  1 1.00
   3.1084208586E-01   1.0000000000E+00
p  1 1.00
   7.7791459566E-01   1.0000000000E+00
d  1 1.00
   9.5064809100E-02   1.0000000000E+00
d  1 1.00
   2.3367772930E-01   1.0000000000E+00
d  1 1.00
   5.7440057670E-01   1.0000000000E+00
f  1 1.00
   1.5956751480E-01   1.0000000000E+00
f  1 1.00
   4.2730645850E-01   1.0000000000E+00
 
  3 0
s  1 1.00
   1.7064719900E-02   1.0000000000E+00
s  1 1.00
   4.3427005944E-02   1.0000000000E+00
s  1 1.00
   1.1051484327E-01   1.0000000000E+00
s  1 1.00
   2.8124275018E-01   1.0000000000E+00
s  1 1.00
   7.1571819843E-01   1.0000000000E+00
s  1 1.00
   1.8213893131E+00   1.0000000000E+00
p  1 1.00
   4.9631294600E-02   1.0000000000E+00
p  1 1.00
   1.2420746812E-01   1.0000000000E+00
p  1 1.00
   3.1084208586E-01   1.0000000000E+00
p  1 1.00
   7.7791459566E-01   1.0000000000E+00
d  1 1.00
   9.5064809100E-02   1.0000000000E+00
d  1 1.00
   2.3367772930E-01   1.0000000000E+00
d  1 1.00
   5.7440057670E-01   1.0000000000E+00
f  1 1.00
   1.5956751480E-01   1.0000000000E+00
f  1 1.00
   4.2730645850E-01   1.0000000000E+00
 
  4 0
s  1 1.00
   1.7064719900E-02   1.0000000000E+00
s  1 1.00
   4.3427005944E-02   1.0000000000E+00
s  1 1.00
   1.1051484327E-01   1.0000000000E+00
s  1 1.00
   2.8124275018E-01   1.0000000000E+00
s  1 1.00
   7.1571819843E-01   1.0000000000E+00
s  1 1.00
   1.8213893131E+00   1.0000000000E+00
p  1 1.00
   4.9631294600E-02   1.0000000000E+00
p  1 1.00
   1.2420746812E-01   1.0000000000E+00
p  1 1.00
   3.1084208586E-01   1.0000000000E+00
p  1 1.00
   7.7791459566E-01   1.0000000000E+00
d  1 1.00
   9.5064809100E-02   1.0000000000E+00
d  1 1.00
   2.3367772930E-01   1.0000000000E+00
d  1 1.00
   5.7440057670E-01   1.0000000000E+00
f  1 1.00
   1.5956751480E-01   1.0000000000E+00
f  1 1.00
   4.2730645850E-01   1.0000000000E+00
 
 
[MO]
Ene=    -3.41249E-01
Spin= Alpha
Occup=   1.0000000000
   1      -0.02804218
   2      -0.46854260
   3      -0.25690109
   4       0.06089178
   5       0.07418780
   6       0.00995043
   7       0.02846374
   8       0.00000016
   9       0.16961341
  10       0.00634682
  11       0.00000011
  12       0.03598261
  13       0.00400624
  14       0.00000004
  15       0.02596481
  16      -0.00240979
  17      -0.00000002
  18      -0.01465344
  19       0.01383171
  20       0.01503921
  21      -0.04952177
  22      -0.00000001
  23      -0.01318336
  24      -0.00000007
  25       0.01944820
  26       0.02012780
  27       0.01843785
  28      -0.00000000
  29       0.00031168
  30      -0.00000000
  31       0.00991258
  32       0.00971370
  33       0.01083830
  34      -0.00000000
  35       0.00006988
  36      -0.00000000
  37       0.00210971
  38      -0.00000001
  39       0.03131189
  40       0.00083055
  41      -0.00000000
  42       0.00897694
  43       0.00410350
  44       0.00000001
  45       0.00866160
  46       0.00000000
  47      -0.00106121
  48      -0.00000001
  49      -0.00682004
  50      -0.00045453
  51      -0.00000001
  52      -0.00273848
  53      -0.00077376
  54      -0.00000001
  55      -0.00281027
  56      -0.00000000
  57      -0.02146725
  58       0.40140551
  59       0.02652003
  60       0.15368805
  61       0.00533332
  62       0.00017907
  63      -0.06611516
  64       0.00000000
  65       0.00908651
  66      -0.30914268
  67       0.00000007
  68       0.36281117
  69       0.02865302
  70      -0.00000000
  71       0.01948216
  72      -0.00024701
  73      -0.00000000
  74      -0.00166336
  75      -0.00589051
  76       0.00859440
  77       0.00994133
  78      -0.00000001
  79       0.01454053
  80      -0.00000001
  81       0.05331638
  82       0.02174604
  83       0.02808174
  84       0.00000001
  85       0.00389570
  86      -0.00000001
  87       0.00134663
  88       0.00249865
  89       0.00193611
  90      -0.00000000
  91       0.00031163
  92       0.00000000
  93       0.06753523
  94      -0.00000002
  95      -0.07013074
  96       0.04492885
  97       0.00000001
  98       0.03987090
  99       0.03527308
 100      -0.00000001
 101      -0.03083823
 102       0.00000001
 103       0.00298321
 104      -0.00000000
 105      -0.00586417
 106      -0.00187096
 107      -0.00000000
 108       0.00236591
 109      -0.00229540
 110      -0.00000000
 111      -0.00264299
 112       0.00000000
 113      -0.00199401
 114      -0.63590260
 115      -0.17076856
 116      -0.17655182
 117       0.05593810
 118       0.00548859
 119      -0.11449491
 120       0.00000007
 121      -0.12964588
 122      -0.16778114
 123      -0.00000003
 124      -0.27027121
 125       0.00113860
 126       0.00000001
 127      -0.02371355
 128       0.00064753
 129      -0.00000001
 130       0.01394588
 131      -0.00947982
 132       0.01019219
 133      -0.05637773
 134       0.00000002
 135      -0.03119704
 136       0.00000005
 137      -0.03475857
 138      -0.01475841
 139      -0.02175745
 140       0.00000000
 141      -0.01783410
 142       0.00000000
 143       0.00894899
 144       0.00877683
 145       0.01006312
 146      -0.00000000
 147      -0.00086180
 148       0.00000000
 149       0.04802970
 150       0.00000001
 151       0.03604833
 152       0.02401134
 153       0.00000001
 154       0.02315923
 155       0.01547378
 156       0.00000001
 157       0.02198183
 158       0.00000001
 159      -0.00398126
 160      -0.00000000
 161       0.01276521
 162      -0.00092203
 163      -0.00000000
 164       0.00390146
 165      -0.00112374
 166      -0.00000000
 167       0.00514709
 168      -0.00000000
 169       0.00792368
 170      -0.15278679
 171       0.04990884
 172       0.07800150
 173       0.01308611
 174       0.00319008
 175       0.02827283
 176       0.00000003
 177      -0.03651378
 178      -0.01995973
 179      -0.00000007
 180      -0.27417256
 181       0.01919242
 182       0.00000001
 183      -0.01795242
 184      -0.00548050
 185      -0.00000000
 186       0.00947360
 187       0.01486051
 188       0.02378043
 189       0.01314037
 190      -0.00000000
 191       0.02461440
 192       0.00000002
 193       0.02363776
 194       0.01685892
 195       0.02241791
 196       0.00000001
 197       0.02147962
 198      -0.00000001
 199       0.00062680
 200       0.00091275
 201       0.00113117
 202       0.00000000
 203       0.00077581
 204       0.00000000
 205       0.01026263
 206       0.00000002
 207       0.04819863
 208       0.00615449
 209       0.00000001
 210       0.02558403
 211       0.00567800
 212       0.00000001
 213       0.02275814
 214      -0.00000000
 215      -0.00676280
 216      -0.00000000
 217       0.01030308
 218      -0.00271545
 219      -0.00000000
 220       0.00281436
 221      -0.00296578
 222      -0.00000000
 223       0.00453277
 224       0.00000000
Ene=    -2.63816E-01
Spin= Alpha
Occup=   0.0000000000
   1       0.11449912
   2       0.68915070
   3       0.28213863
   4      -0.07047298
   5      -0.08481521
   6      -0.01022758
   7       0.07173323
   8      -0.00000038
   9       0.00854669
  10       0.03254944
  11      -0.00000025
  12       0.01984632
  13       0.00577928
  14      -0.00000004
  15       0.00702311
  16      -0.00702659
  17       0.00000004
  18      -0.00668565
  19      -0.01657917
  20      -0.01435472
  21      -0.03507611
  22      -0.00000001
  23      -0.02152566
  24       0.00000003
  25      -0.03052122
  26      -0.03026623
  27      -0.03341157
  28      -0.00000000
  29       0.00068546
  30      -0.00000001
  31      -0.01373189
  32      -0.01381798
  33      -0.01267697
  34      -0.00000000
  35       0.00011017
  36       0.00000000
  37      -0.00986378
  38       0.00000006
  39      -0.00029578
  40      -0.00455949
  41       0.00000003
  42      -0.00179821
  43      -0.00016473
  44       0.00000003
  45      -0.00236658
  46       0.00000000
  47      -0.00661889
  48       0.00000004
  49      -0.00552943
  50      -0.00293840
  51       0.00000002
  52      -0.00249616
  53      -0.00329975
  54       0.00000002
  55      -0.00249592
  56      -0.00000000
  57      -0.02712355
  58       0.94093720
  59      -0.04403890
  60       0.06515991
  61       0.02862835
  62       0.00008504
  63      -0.49955513
  64       0.00000004
  65       0.05008187
  66      -0.49466326
  67      -0.00000018
  68      -0.16191816
  69       0.03398598
  70      -0.00000001
  71       0.00133784
  72      -0.00143797
  73       0.00000000
  74       0.00141629
  75      -0.01623754
  76       0.02368137
  77       0.03106644
  78       0.00000003
  79      -0.07291142
  80       0.00000001
  81       0.00625749
  82       0.02683223
  83       0.02848769
  84       0.00000001
  85      -0.00805150
  86       0.00000000
  87       0.01306379
  88       0.00747850
  89       0.00700311
  90       0.00000000
  91      -0.00034891
  92      -0.00000000
  93       0.22497450
  94       0.00000005
  95       0.05005281
  96       0.12847217
  97      -0.00000002
  98      -0.02565175
  99       0.10107280
 100       0.00000002
 101       0.02226638
 102       0.00000001
 103       0.00310936
 104       0.00000000
 105       0.00322558
 106      -0.00422680
 107      -0.00000000
 108       0.00146914
 109      -0.00589753
 110       0.00000000
 111       0.00141262
 112       0.00000000
 113      -0.12381100
 114      -2.18710537
 115       0.05888747
 116      -0.31280005
 117       0.09933905
 118       0.00987698
 119      -0.32648300
 120       0.00000012
 121      -0.26969155
 122      -0.23868252
 123       0.00000023
 124       0.07972476
 125      -0.00016802
 126       0.00000002
 127      -0.02044794
 128      -0.00622785
 129      -0.00000001
 130       0.00316269
 131      -0.07117947
 132      -0.03710071
 133      -0.09979382
 134       0.00000002
 135      -0.04004667
 136       0.00000002
 137      -0.08235719
 138      -0.02103264
 139      -0.03319058
 140       0.00000002
 141       0.00367104
 142       0.00000001
 143       0.01513535
 144       0.01750123
 145       0.01760685
 146       0.00000000
 147      -0.00037926
 148      -0.00000000
 149       0.10017130
 150      -0.00000003
 151      -0.06465598
 152       0.05595938
 153      -0.00000001
 154      -0.03527995
 155       0.04566313
 156      -0.00000001
 157      -0.02654382
 158       0.00000000
 159      -0.01118204
 160      -0.00000001
 161      -0.00232966
 162      -0.00219135
 163      -0.00000000
 164      -0.00083069
 165      -0.00293149
 166      -0.00000000
 167      -0.00141701
 168       0.00000000
 169       0.02756953
 170       0.31834972
 171      -0.18844983
 172       0.43498482
 173      -0.00245430
 174       0.00384378
 175      -0.06434064
 176      -0.00000005
 177       0.04366729
 178      -0.16280315
 179       0.00000011
 180       0.17713276
 181       0.02523479
 182      -0.00000000
 183       0.00472766
 184      -0.01042384
 185      -0.00000001
 186       0.00179272
 187       0.09087701
 188       0.09762903
 189       0.12507978
 190       0.00000001
 191      -0.02345496
 192      -0.00000003
 193       0.10300147
 194       0.06011829
 195       0.07735772
 196      -0.00000000
 197      -0.01148132
 198      -0.00000001
 199      -0.00524570
 200      -0.00144508
 201      -0.00287532
 202       0.00000000
 203      -0.00035394
 204       0.00000000
 205       0.08890193
 206      -0.00000004
 207      -0.00772158
 208       0.04671577
 209      -0.00000002
 210      -0.00730144
 211       0.03816021
 212      -0.00000002
 213      -0.00479434
 214       0.00000001
 215      -0.01807394
 216      -0.00000001
 217       0.00379806
 218      -0.00773968
 219      -0.00000000
 220       0.00261490
 221      -0.00873140
 222      -0.00000000
 223       0.00188529
 224       0.00000000
Ene=    -2.41207E-01
Spin= Alpha
Occup=   0.0000000000
   1       0.00000007
   2       0.00000045
   3       0.00000024
   4      -0.00000005
   5      -0.00000006
   6      -0.00000001
   7      -0.00000024
   8       0.64340947
   9      -0.00000008
  10      -0.00000011
  11       0.34874656
  12       0.00000007
  13      -0.00000001
  14       0.00804769
  15      -0.00000002
  16       0.00000002
  17      -0.05105135
  18      -0.00000000
  19       0.00000005
  20      -0.00000012
  21       0.00000006
  22      -0.02248603
  23       0.00000005
  24      -0.14570244
  25      -0.00000004
  26      -0.00000004
  27      -0.00000003
  28       0.00467693
  29      -0.00000000
  30       0.02556551
  31      -0.00000001
  32      -0.00000001
  33      -0.00000001
  34      -0.00094608
  35       0.00000000
  36      -0.00476589
  37       0.00000004
  38      -0.17457446
  39      -0.00000008
  40       0.00000002
  41      -0.07803678
  42      -0.00000004
  43       0.00000001
  44      -0.05460799
  45      -0.00000001
  46       0.00464892
  47       0.00000002
  48      -0.06672886
  49      -0.00000001
  50       0.00000001
  51      -0.02970389
  52      -0.00000000
  53       0.00000001
  54      -0.03309437
  55      -0.00000001
  56      -0.00080427
  57      -0.00000062
  58      -0.00000959
  59      -0.00000154
  60      -0.00000376
  61       0.00000008
  62       0.00000000
  63       0.00000008
  64      -0.21153363
  65      -0.00000115
  66       0.00000427
  67       3.48168872
  68      -0.00000262
  69      -0.00000011
  70       0.06529608
  71      -0.00000013
  72      -0.00000000
  73      -0.01770895
  74       0.00000000
  75      -0.00000053
  76      -0.00000028
  77      -0.00000056
  78       0.06575051
  79       0.00000022
  80      -0.07215110
  81      -0.00000119
  82      -0.00000036
  83      -0.00000038
  84       0.02313164
  85      -0.00000004
  86      -0.02165421
  87       0.00000001
  88       0.00000002
  89       0.00000002
  90       0.00040433
  91       0.00000000
  92       0.00443234
  93      -0.00000033
  94      -0.83232358
  95       0.00000042
  96      -0.00000033
  97       0.49643399
  98      -0.00000035
  99      -0.00000027
 100      -0.37171849
 101       0.00000020
 102       0.02816376
 103      -0.00000002
 104      -0.04965285
 105       0.00000002
 106       0.00000000
 107      -0.00346587
 108      -0.00000002
 109       0.00000001
 110      -0.02276183
 111       0.00000001
 112       0.00149189
 113       0.00000032
 114       0.00000491
 115       0.00000343
 116       0.00000328
 117      -0.00000008
 118       0.00000000
 119       0.00000100
 120       0.61425044
 121       0.00000079
 122       0.00000244
 123      -2.60418674
 124       0.00000194
 125       0.00000018
 126       0.05441365
 127       0.00000008
 128       0.00000001
 129      -0.00991881
 130      -0.00000001
 131       0.00000026
 132       0.00000006
 133       0.00000036
 134       0.01258255
 135       0.00000022
 136       0.16714327
 137       0.00000066
 138       0.00000038
 139       0.00000044
 140      -0.15222075
 141       0.00000012
 142       0.00413748
 143      -0.00000002
 144      -0.00000002
 145      -0.00000002
 146      -0.00490751
 147       0.00000001
 148       0.00160344
 149      -0.00000058
 150       0.61364807
 151      -0.00000022
 152      -0.00000029
 153       0.35718039
 154      -0.00000014
 155      -0.00000024
 156       0.29317951
 157      -0.00000012
 158       0.02439435
 159       0.00000003
 160       0.02154028
 161      -0.00000002
 162       0.00000001
 163      -0.00449084
 164       0.00000000
 165       0.00000001
 166       0.00679502
 167      -0.00000001
 168      -0.00026294
 169       0.00000012
 170       0.00000426
 171      -0.00000184
 172       0.00000099
 173       0.00000002
 174       0.00000000
 175      -0.00000092
 176       0.30799207
 177       0.00000032
 178      -0.00000028
 179      -2.78193888
 180       0.00000190
 181      -0.00000024
 182       0.02206595
 183       0.00000004
 184      -0.00000000
 185      -0.00664830
 186      -0.00000001
 187       0.00000033
 188       0.00000023
 189       0.00000035
 190       0.06403977
 191      -0.00000014
 192       0.07294339
 193       0.00000018
 194       0.00000002
 195       0.00000001
 196       0.17688882
 197      -0.00000015
 198      -0.02818614
 199       0.00000001
 200       0.00000000
 201       0.00000000
 202       0.00576572
 203      -0.00000001
 204       0.00340680
 205       0.00000022
 206       0.59111656
 207      -0.00000042
 208       0.00000012
 209       0.33177802
 210      -0.00000021
 211       0.00000010
 212       0.27149676
 213      -0.00000020
 214      -0.00343120
 215       0.00000000
 216       0.01601411
 217      -0.00000003
 218      -0.00000000
 219      -0.00851795
 220      -0.00000000
 221       0.00000000
 222       0.00599307
 223      -0.00000002
 224       0.00174879
Ene=    -2.40864E-01
Spin= Alpha
Occup=   0.0000000000
   1      -0.08290894
   2      -0.27259977
   3      -0.06975591
   4       0.02166034
   5       0.02633349
   6       0.00246782
   7       0.48679177
   8       0.00000041
   9      -0.06387288
  10       0.23276756
  11       0.00000024
  12      -0.04675406
  13       0.02011088
  14       0.00000001
  15      -0.01077218
  16      -0.03999604
  17      -0.00000003
  18       0.01042123
  19      -0.00522858
  20       0.02588373
  21       0.03862496
  22      -0.00000011
  23      -0.08252152
  24      -0.00000004
  25       0.01734963
  26       0.01202830
  27       0.01858392
  28       0.00000000
  29       0.00641627
  30       0.00000001
  31       0.00514901
  32       0.00616761
  33       0.00451149
  34      -0.00000000
  35      -0.00069729
  36      -0.00000000
  37      -0.09016696
  38      -0.00000010
  39       0.00068255
  40      -0.04136797
  41      -0.00000004
  42       0.00574110
  43      -0.02799175
  44      -0.00000004
  45       0.00036110
  46       0.00000002
  47      -0.04460180
  48      -0.00000004
  49       0.00810215
  50      -0.01976193
  51      -0.00000002
  52       0.00326564
  53      -0.02105468
  54      -0.00000002
  55       0.00408037
  56      -0.00000000
  57       0.37349796
  58       4.06599612
  59       0.57215685
  60       1.24556029
  61      -0.03141958
  62      -0.00031465
  63      -0.57706699
  64      -0.00000029
  65       0.55259322
  66      -3.68479310
  67       0.00000111
  68       0.75674014
  69      -0.02301167
  70       0.00000001
  71       0.04447547
  72      -0.00029427
  73      -0.00000001
  74      -0.00001269
  75       0.13571267
  76       0.08202896
  77       0.21556021
  78       0.00000017
  79      -0.43838839
  80      -0.00000008
  81       0.38675866
  82       0.10740503
  83       0.11453246
  84       0.00000007
  85      -0.03241046
  86      -0.00000001
  87      -0.00309962
  88      -0.01035835
  89      -0.01079794
  90       0.00000000
  91      -0.00216019
  92       0.00000000
  93       0.40221436
  94      -0.00000029
  95      -0.09869115
  96       0.34908430
  97       0.00000016
  98       0.10801992
  99       0.25004212
 100      -0.00000014
 101      -0.05079450
 102       0.00000007
 103       0.00543607
 104      -0.00000002
 105      -0.00422250
 106       0.00226292
 107      -0.00000000
 108       0.00750454
 109      -0.00456036
 110      -0.00000001
 111      -0.00128213
 112       0.00000000
 113      -0.42715486
 114      -3.80136900
 115      -2.40572741
 116      -1.92500391
 117       0.04178253
 118      -0.00047940
 119      -0.73781220
 120       0.00000051
 121      -0.73893805
 122      -1.49607469
 123      -0.00000069
 124      -0.78329228
 125      -0.09861691
 126       0.00000005
 127      -0.06445214
 128      -0.01802284
 129       0.00000000
 130      -0.00602521
 131      -0.17395062
 132      -0.01756917
 133      -0.21224876
 134       0.00000010
 135      -0.19161392
 136       0.00000017
 137      -0.40951198
 138      -0.22757285
 139      -0.28893378
 140      -0.00000002
 141      -0.05537035
 142       0.00000004
 143       0.00717633
 144       0.00987787
 145       0.01324803
 146       0.00000000
 147      -0.00435327
 148      -0.00000000
 149       0.31805973
 150       0.00000023
 151      -0.05083534
 152       0.16896084
 153       0.00000015
 154      -0.01831237
 155       0.12930936
 156       0.00000012
 157      -0.01547949
 158       0.00000003
 159      -0.02454648
 160       0.00000002
 161      -0.01560636
 162      -0.00709277
 163       0.00000001
 164      -0.01279452
 165      -0.01038652
 166       0.00000001
 167      -0.00769189
 168       0.00000000
 169       0.13003624
 170       0.11846719
 171       1.92622164
 172       0.45513198
 173      -0.05906309
 174      -0.00478319
 175      -0.05264546
 176      -0.00000001
 177       0.30412706
 178      -0.62413311
 179      -0.00000108
 180      -0.33354280
 181       0.04727364
 182      -0.00000001
 183       0.03716779
 184      -0.00244895
 185      -0.00000000
 186       0.00371653
 187      -0.05720942
 188      -0.11253698
 189      -0.03021026
 190       0.00000008
 191      -0.09408033
 192      -0.00000003
 193       0.11465892
 194       0.07780720
 195       0.12574526
 196       0.00000008
 197       0.02001741
 198      -0.00000004
 199      -0.01322272
 200      -0.00958869
 201      -0.01140519
 202       0.00000000
 203       0.00207466
 204       0.00000000
 205       0.06979890
 206       0.00000018
 207       0.23243742
 208       0.04026463
 209       0.00000009
 210       0.11682551
 211       0.01856977
 212       0.00000008
 213       0.10204149
 214       0.00000002
 215      -0.01001769
 216      -0.00000000
 217       0.02464578
 218      -0.00125613
 219      -0.00000001
 220       0.00859231
 221      -0.00554120
 222      -0.00000000
 223       0.01158565
 224       0.00000000
Ene=    -2.15565E-01
Spin= Alpha
Occup=   0.0000000000
   1       0.24175715
   2       0.03018811
   3       0.06676249
   4      -0.01127354
   5      -0.02229392
   6      -0.00239127
   7       0.17400427
   8       0.00000010
   9       0.45836042
  10       0.07970954
  11      -0.00000000
  12       0.14364933
  13       0.00583042
  14       0.00000000
  15       0.03400717
  16      -0.01315552
  17      -0.00000000
  18      -0.03259883
  19       0.02042488
  20       0.02267545
  21      -0.08383572
  22      -0.00000004
  23      -0.03078782
  24      -0.00000014
  25      -0.01092303
  26      -0.00968272
  27      -0.00786228
  28       0.00000000
  29       0.00220983
  30       0.00000001
  31      -0.00414991
  32      -0.00448109
  33      -0.00394542
  34      -0.00000000
  35      -0.00029026
  36      -0.00000000
  37      -0.03259837
  38      -0.00000001
  39      -0.00915815
  40      -0.01486037
  41      -0.00000000
  42      -0.01125994
  43      -0.00925292
  44       0.00000002
  45      -0.01140222
  46       0.00000001
  47      -0.01508994
  48      -0.00000000
  49      -0.02821657
  50      -0.00669925
  51      -0.00000000
  52      -0.01204927
  53      -0.00722521
  54      -0.00000000
  55      -0.01223435
  56      -0.00000000
  57       0.30829312
  58       2.14937611
  59       0.32395514
  60       0.60297081
  61      -0.01525386
  62       0.00009839
  63       0.49980800
  64      -0.00000000
  65       0.22466962
  66      -1.40759191
  67       0.00000046
  68      -0.26731903
  69      -0.02279146
  70       0.00000001
  71       0.02453949
  72       0.00190723
  73      -0.00000000
  74       0.00287885
  75       0.06473945
  76       0.05661504
  77       0.06877741
  78       0.00000001
  79      -0.10229675
  80      -0.00000004
  81       0.18859032
  82       0.05902399
  83       0.06839603
  84       0.00000001
  85      -0.00628303
  86      -0.00000001
  87      -0.00526524
  88      -0.00331584
  89      -0.00444789
  90       0.00000000
  91      -0.00023192
  92       0.00000000
  93      -0.04514173
  94      -0.00000012
  95       0.10473185
  96       0.04490361
  97       0.00000005
  98      -0.06960785
  99       0.01356280
 100      -0.00000005
 101       0.04896722
 102       0.00000002
 103       0.00288326
 104      -0.00000001
 105       0.00475615
 106       0.00507592
 107       0.00000000
 108       0.00781720
 109       0.00318567
 110      -0.00000000
 111       0.00203311
 112       0.00000000
 113       0.06166862
 114      -0.28946477
 115      -1.40853611
 116      -0.54069281
 117      -0.03126643
 118      -0.00491427
 119      -0.25377394
 120       0.00000009
 121      -0.52013992
 122      -0.58926739
 123      -0.00000033
 124       0.16830455
 125      -0.04900499
 126       0.00000000
 127      -0.06422232
 128       0.00615785
 129       0.00000000
 130       0.02061023
 131       0.03429867
 132       0.12397237
 133      -0.00230542
 134       0.00000002
 135      -0.09380584
 136       0.00000012
 137      -0.09956118
 138      -0.06813039
 139      -0.08654265
 140      -0.00000002
 141       0.00036658
 142       0.00000001
 143      -0.00577022
 144      -0.00442562
 145      -0.00263762
 146      -0.00000000
 147      -0.00112833
 148       0.00000000
 149       0.06044417
 150       0.00000007
 151      -0.12281844
 152       0.03070764
 153       0.00000005
 154      -0.07260746
 155       0.01280891
 156       0.00000005
 157      -0.04889908
 158       0.00000002
 159       0.00487514
 160       0.00000001
 161       0.01092440
 162       0.00280944
 163       0.00000000
 164       0.00447205
 165       0.00198922
 166       0.00000000
 167       0.00436706
 168       0.00000000
 169      -0.05218888
 170      -1.64455613
 171       1.23384056
 172      -0.16864627
 173       0.00182186
 174      -0.00193335
 175       0.29597929
 176       0.00000004
 177      -0.14533012
 178      -0.07133063
 179      -0.00000038
 180       0.31477461
 181       0.01181894
 182      -0.00000000
 183      -0.02802541
 184       0.00238229
 185      -0.00000000
 186       0.01624668
 187      -0.12920790
 188      -0.12989915
 189      -0.13608830
 190       0.00000002
 191       0.01100519
 192       0.00000004
 193      -0.04816619
 194      -0.01194482
 195       0.00756703
 196       0.00000003
 197      -0.00926616
 198      -0.00000002
 199       0.00201700
 200       0.00158124
 201       0.00099492
 202       0.00000000
 203       0.00041072
 204       0.00000000
 205      -0.07505156
 206       0.00000008
 207      -0.04243253
 208      -0.03679619
 209       0.00000004
 210      -0.03615585
 211      -0.04137622
 212       0.00000004
 213      -0.01899569
 214      -0.00000000
 215       0.00677243
 216       0.00000000
 217       0.01669298
 218       0.00323656
 219      -0.00000000
 220       0.00839611
 221       0.00190627
 222      -0.00000000
 223       0.00753408
 224       0.00000000
Ene=    -1.87757E-01
Spin= Alpha
Occup=   0.0000000000
   1       0.00000041
   2      -0.00000027
   3      -0.00000003
   4       0.00000002
   5       0.00000001
   6      -0.00000000
   7      -0.00000041
   8       0.78829708
   9       0.00000035
  10      -0.00000023
  11       0.41457931
  12       0.00000012
  13       0.00000000
  14       0.00129931
  15       0.00000000
  16       0.00000003
  17      -0.05668820
  18      -0.00000002
  19       0.00000015
  20      -0.00000006
  21       0.00000005
  22       0.00082869
  23       0.00000001
  24      -0.02036310
  25       0.00000002
  26       0.00000002
  27       0.00000003
  28      -0.00069061
  29      -0.00000000
  30       0.00250997
  31       0.00000001
  32       0.00000000
  33       0.00000000
  34       0.00009136
  35       0.00000000
  36      -0.00082767
  37       0.00000012
  38      -0.20296116
  39      -0.00000005
  40       0.00000005
  41      -0.09019847
  42      -0.00000003
  43       0.00000005
  44      -0.09139170
  45      -0.00000003
  46      -0.00107946
  47       0.00000004
  48      -0.07740673
  49      -0.00000002
  50       0.00000002
  51      -0.03477332
  52      -0.00000001
  53       0.00000002
  54      -0.03476172
  55      -0.00000001
  56       0.00016805
  57       0.00000119
  58      -0.00000574
  59      -0.00000217
  60      -0.00000555
  61       0.00000008
  62      -0.00000000
  63      -0.00000186
  64       0.15973599
  65      -0.00000001
  66       0.00000130
  67      -5.23430810
  68      -0.00000006
  69       0.00000046
  70      -0.12660170
  71      -0.00000002
  72      -0.00000001
  73       0.02403015
  74      -0.00000001
  75      -0.00000078
  76      -0.00000054
  77      -0.00000056
  78      -0.27315147
  79       0.00000014
  80      -0.03333658