[Molden Format]
[Title]
 Molden2AIM, Version 3.1.0 (02/25/2015)           Time: Wed Apr 23 15:22:44 2025

[Atoms] Angs
F       1       9     0.00000000     0.00000000     4.00000000
F       2       9    -0.95000000     0.00000000     0.00000000
F       3       9     0.95000000     0.00000000     0.00000000
E+       4       1     0.00000000     0.00000000     0.00000000
[GTO]
    1 0
 S   8 1.0
    0.1950000000D+05      0.5193715996D-03
    0.2923000000D+04      0.4018727387D-02
    0.6645000000D+03      0.2069291186D-01
    0.1875000000D+03      0.8093796861D-01
    0.6062000000D+02      0.2360620750D+00
    0.2142000000D+02      0.4434347595D+00
    0.7950000000D+01      0.3585036736D+00
    0.8815000000D+00     -0.8084577247D-02
 S   8 1.0
    0.1950000000D+05     -0.1995911530D-03
    0.2923000000D+04     -0.1555787449D-02
    0.6645000000D+03     -0.8046764688D-02
    0.1875000000D+03     -0.3255894654D-01
    0.6062000000D+02     -0.1017658994D+00
    0.2142000000D+02     -0.2388440797D+00
    0.7950000000D+01     -0.3015737026D+00
    0.8815000000D+00      0.1032147265D+01
 S   1 1.0
    0.2257000000D+01      0.1000000000D+01
 S   1 1.0
    0.3041000000D+00      0.1000000000D+01
 S   1 1.0
    0.9158000000D-01      0.1000000000D+01
 P   3 1.0
    0.4388000000D+02      0.4190462069D-01
    0.9926000000D+01      0.2626978417D+00
    0.2930000000D+01      0.7977593735D+00
 P   1 1.0
    0.9132000000D+00      0.1000000000D+01
 P   1 1.0
    0.2672000000D+00      0.1000000000D+01
 P   1 1.0
    0.7361000000D-01      0.1000000000D+01
 D   1 1.0
    0.3107000000D+01      0.1000000000D+01
 D   1 1.0
    0.8550000000D+00      0.1000000000D+01
 D   1 1.0
    0.2920000000D+00      0.1000000000D+01
 F   1 1.0
    0.1917000000D+01      0.1000000000D+01
 F   1 1.0
    0.7240000000D+00      0.1000000000D+01

    2 0
 S   8 1.0
    0.1950000000D+05      0.5193715996D-03
    0.2923000000D+04      0.4018727387D-02
    0.6645000000D+03      0.2069291186D-01
    0.1875000000D+03      0.8093796861D-01
    0.6062000000D+02      0.2360620750D+00
    0.2142000000D+02      0.4434347595D+00
    0.7950000000D+01      0.3585036736D+00
    0.8815000000D+00     -0.8084577247D-02
 S   8 1.0
    0.1950000000D+05     -0.1995911530D-03
    0.2923000000D+04     -0.1555787449D-02
    0.6645000000D+03     -0.8046764688D-02
    0.1875000000D+03     -0.3255894654D-01
    0.6062000000D+02     -0.1017658994D+00
    0.2142000000D+02     -0.2388440797D+00
    0.7950000000D+01     -0.3015737026D+00
    0.8815000000D+00      0.1032147265D+01
 S   1 1.0
    0.2257000000D+01      0.1000000000D+01
 S   1 1.0
    0.3041000000D+00      0.1000000000D+01
 S   1 1.0
    0.9158000000D-01      0.1000000000D+01
 P   3 1.0
    0.4388000000D+02      0.4190462069D-01
    0.9926000000D+01      0.2626978417D+00
    0.2930000000D+01      0.7977593735D+00
 P   1 1.0
    0.9132000000D+00      0.1000000000D+01
 P   1 1.0
    0.2672000000D+00      0.1000000000D+01
 P   1 1.0
    0.7361000000D-01      0.1000000000D+01
 D   1 1.0
    0.3107000000D+01      0.1000000000D+01
 D   1 1.0
    0.8550000000D+00      0.1000000000D+01
 D   1 1.0
    0.2920000000D+00      0.1000000000D+01
 F   1 1.0
    0.1917000000D+01      0.1000000000D+01
 F   1 1.0
    0.7240000000D+00      0.1000000000D+01

    3 0
 S   8 1.0
    0.1950000000D+05      0.5193715996D-03
    0.2923000000D+04      0.4018727387D-02
    0.6645000000D+03      0.2069291186D-01
    0.1875000000D+03      0.8093796861D-01
    0.6062000000D+02      0.2360620750D+00
    0.2142000000D+02      0.4434347595D+00
    0.7950000000D+01      0.3585036736D+00
    0.8815000000D+00     -0.8084577247D-02
 S   8 1.0
    0.1950000000D+05     -0.1995911530D-03
    0.2923000000D+04     -0.1555787449D-02
    0.6645000000D+03     -0.8046764688D-02
    0.1875000000D+03     -0.3255894654D-01
    0.6062000000D+02     -0.1017658994D+00
    0.2142000000D+02     -0.2388440797D+00
    0.7950000000D+01     -0.3015737026D+00
    0.8815000000D+00      0.1032147265D+01
 S   1 1.0
    0.2257000000D+01      0.1000000000D+01
 S   1 1.0
    0.3041000000D+00      0.1000000000D+01
 S   1 1.0
    0.9158000000D-01      0.1000000000D+01
 P   3 1.0
    0.4388000000D+02      0.4190462069D-01
    0.9926000000D+01      0.2626978417D+00
    0.2930000000D+01      0.7977593735D+00
 P   1 1.0
    0.9132000000D+00      0.1000000000D+01
 P   1 1.0
    0.2672000000D+00      0.1000000000D+01
 P   1 1.0
    0.7361000000D-01      0.1000000000D+01
 D   1 1.0
    0.3107000000D+01      0.1000000000D+01
 D   1 1.0
    0.8550000000D+00      0.1000000000D+01
 D   1 1.0
    0.2920000000D+00      0.1000000000D+01
 F   1 1.0
    0.1917000000D+01      0.1000000000D+01
 F   1 1.0
    0.7240000000D+00      0.1000000000D+01

    4 0
 S   1 1.0
    0.1000000000D+01      0.1000000000D+01


[MO]
 Ene=        -26.09720000
 Spin= Alpha
 Occup=        1.00000000
    1       -0.0000107600
    2       -0.0000176400
    3       -0.0000346500
    4        0.0001445200
    5        0.0001261700
    6        0.0000009100
    7       -0.0000000000
    8       -0.0000005200
    9       -0.0000028500
   10        0.0000000000
   11        0.0000028300
   12       -0.0000133200
   13        0.0000000000
   14        0.0000114700
   15        0.0000312900
   16       -0.0000000000
   17       -0.0000615700
   18       -0.0000055600
   19       -0.0000057900
   20       -0.0000011900
   21       -0.0000000000
   22       -0.0000031600
   23        0.0000000000
   24       -0.0000377600
   25       -0.0000368000
   26       -0.0000552200
   27        0.0000000000
   28        0.0000122300
   29       -0.0000000000
   30       -0.0000684400
   31       -0.0000704600
   32       -0.0000329300
   33       -0.0000000000
   34       -0.0000228100
   35        0.0000000000
   36        0.0000030600
   37       -0.0000000000
   38       -0.0000001100
   39        0.0000013300
   40       -0.0000000000
   41       -0.0000015600
   42       -0.0000016000
   43       -0.0000000000
   44       -0.0000018700
   45       -0.0000000000
   46        0.0000006600
   47       -0.0000000000
   48       -0.0000042600
   49        0.0000003800
   50       -0.0000000000
   51        0.0000014500
   52        0.0000067300
   53       -0.0000000000
   54        0.0000021400
   55        0.0000000000
   56        0.0001101200
   57       -0.0001172000
   58       -0.0002545900
   59        0.0011229300
   60        0.0012764200
   61        0.0000353600
   62       -0.0000000000
   63       -0.0000069900
   64       -0.0000670800
   65        0.0000000000
   66        0.0000278600
   67       -0.0001329100
   68        0.0000000000
   69        0.0000359400
   70        0.0003974200
   71       -0.0000000000
   72       -0.0000201600
   73       -0.0000322900
   74       -0.0000379100
   75       -0.0000396900
   76        0.0000000000
   77        0.0000000400
   78        0.0000000000
   79       -0.0002660100
   80       -0.0003381900
   81       -0.0003315500
   82       -0.0000000000
   83       -0.0000002000
   84       -0.0000000000
   85       -0.0004092900
   86       -0.0004040400
   87       -0.0004153300
   88        0.0000000000
   89        0.0000008200
   90        0.0000000000
   91        0.0000771500
   92       -0.0000000000
   93       -0.0000127600
   94        0.0000153500
   95       -0.0000000000
   96       -0.0000056700
   97        0.0000152000
   98       -0.0000000000
   99       -0.0000061700
  100       -0.0000000000
  101        0.0000681200
  102       -0.0000000000
  103       -0.0000199000
  104        0.0000356300
  105       -0.0000000000
  106       -0.0000092100
  107        0.0000360600
  108       -0.0000000000
  109       -0.0000079100
  110        0.0000000000
  111        0.9716789600
  112       -0.0110233000
  113        0.0479797900
  114       -0.0177387900
  115       -0.0025078000
  116       -0.0003571400
  117        0.0000000000
  118        0.0000364100
  119        0.0012362500
  120       -0.0000000000
  121       -0.0000492700
  122        0.0001969000
  123       -0.0000000000
  124        0.0000369200
  125        0.0004090400
  126        0.0000000000
  127       -0.0000503300
  128        0.0022514900
  129        0.0034827000
  130        0.0034798200
  131        0.0000000000
  132       -0.0000083700
  133       -0.0000000000
  134        0.0083365800
  135        0.0084934000
  136        0.0085025400
  137       -0.0000000000
  138       -0.0000043800
  139        0.0000000000
  140        0.0031291700
  141        0.0032471300
  142        0.0032314000
  143        0.0000000000
  144        0.0000054800
  145       -0.0000000000
  146       -0.0004770000
  147        0.0000000000
  148        0.0000137600
  149       -0.0001968600
  150        0.0000000000
  151        0.0000054500
  152       -0.0001969100
  153        0.0000000000
  154        0.0000055200
  155       -0.0000000000
  156       -0.0004035800
  157        0.0000000000
  158        0.0000029100
  159       -0.0001857200
  160        0.0000000000
  161        0.0000001400
  162       -0.0001860700
  163        0.0000000000
  164        0.0000025600
  165        0.0000000000
  166        0.0000000000
 Ene=        -25.93240000
 Spin= Alpha
 Occup=        1.00000000
    1       -0.9711021500
    2        0.0106069800
    3       -0.0490562500
    4        0.0165583200
    5        0.0013197700
    6        0.0000348100
    7       -0.0000000000
    8        0.0001373600
    9       -0.0000766900
   10        0.0000000000
   11       -0.0002571300
   12       -0.0000189200
   13        0.0000000000
   14        0.0000125400
   15        0.0000036500
   16       -0.0000000000
   17       -0.0000734700
   18       -0.0028385500
   19       -0.0028388100
   20       -0.0028343300
   21       -0.0000000000
   22        0.0000007700
   23       -0.0000000000
   24       -0.0080627800
   25       -0.0080616400
   26       -0.0080761700
   27        0.0000000000
   28        0.0000002500
   29        0.0000000000
   30       -0.0028443400
   31       -0.0028461800
   32       -0.0028207600
   33       -0.0000000000
   34       -0.0000003100
   35       -0.0000000000
   36        0.0000282600
   37       -0.0000000000
   38        0.0000877100
   39        0.0000126400
   40       -0.0000000000
   41        0.0000384500
   42        0.0000126900
   43       -0.0000000000
   44        0.0000382600
   45       -0.0000000000
   46        0.0000284800
   47       -0.0000000000
   48        0.0000705400
   49        0.0000127400
   50       -0.0000000000
   51        0.0000330000
   52        0.0000128200
   53       -0.0000000000
   54        0.0000334100
   55        0.0000000000
   56        0.0001660900
   57        0.0000167600
   58        0.0000437100
   59       -0.0001577400
   60       -0.0001067800
   61        0.0000018700
   62        0.0000000000
   63       -0.0000024600
   64       -0.0000078900
   65       -0.0000000000
   66        0.0000114300
   67       -0.0000090400
   68       -0.0000000000
   69        0.0000190200
   70       -0.0000023100
   71        0.0000000000
   72       -0.0000490900
   73        0.0000057900
   74        0.0000065200
   75        0.0000019600
   76        0.0000000000
   77       -0.0000002400
   78        0.0000000000
   79        0.0000418100
   80        0.0000393400
   81        0.0000574200
   82       -0.0000000000
   83        0.0000011700
   84       -0.0000000000
   85        0.0000647800
   86        0.0000727400
   87        0.0000370900
   88        0.0000000000
   89       -0.0000026400
   90        0.0000000000
   91        0.0000031900
   92        0.0000000000
   93       -0.0000038700
   94        0.0000016900
   95        0.0000000000
   96       -0.0000032300
   97        0.0000017100
   98        0.0000000000
   99       -0.0000036900
  100        0.0000000000
  101        0.0000054600
  102        0.0000000000
  103       -0.0000094300
  104        0.0000015500
  105        0.0000000000
  106       -0.0000009200
  107        0.0000016500
  108        0.0000000000
  109        0.0000001300
  110       -0.0000000000
  111        0.0000092500
  112        0.0000183800
  113        0.0000358300
  114       -0.0001546000
  115       -0.0001058500
  116       -0.0000019100
  117        0.0000000000
  118       -0.0000025700
  119        0.0000082300
  120       -0.0000000000
  121        0.0000116100
  122        0.0000088000
  123       -0.0000000000
  124        0.0000192400
  125        0.0000014400
  126        0.0000000000
  127       -0.0000501000
  128        0.0000054000
  129        0.0000060500
  130        0.0000014500
  131       -0.0000000000
  132        0.0000002500
  133        0.0000000000
  134        0.0000403600
  135        0.0000379400
  136        0.0000561700
  137        0.0000000000
  138       -0.0000011900
  139       -0.0000000000
  140        0.0000649100
  141        0.0000722700
  142        0.0000362600
  143       -0.0000000000
  144        0.0000027100
  145        0.0000000000
  146       -0.0000032800
  147        0.0000000000
  148       -0.0000039600
  149       -0.0000017800
  150        0.0000000000
  151       -0.0000032800
  152       -0.0000017900
  153        0.0000000000
  154       -0.0000037500
  155       -0.0000000000
  156       -0.0000057300
  157        0.0000000000
  158       -0.0000095900
  159       -0.0000015400
  160        0.0000000000
  161       -0.0000009600
  162       -0.0000016400
  163        0.0000000000
  164        0.0000000900
  165        0.0000000000
  166        0.0000000000
 Ene=        -25.93110000
 Spin= Alpha
 Occup=        1.00000000
    1        0.0001456000
    2       -0.0000200600
    3       -0.0000275200
    4        0.0001455900
    5        0.0001278500
    6       -0.0000007500
    7        0.0000000000
    8       -0.0000007300
    9        0.0000022600
   10       -0.0000000000
   11        0.0000038000
   12        0.0000126500
   13       -0.0000000000
   14        0.0000130500
   15       -0.0000306700
   16        0.0000000000
   17       -0.0000628800
   18       -0.0000051900
   19       -0.0000054000
   20       -0.0000007300
   21       -0.0000000000
   22        0.0000031600
   23        0.0000000000
   24       -0.0000372400
   25       -0.0000363700
   26       -0.0000551000
   27        0.0000000000
   28       -0.0000122200
   29        0.0000000000
   30       -0.0000695900
   31       -0.0000714400
   32       -0.0000334400
   33       -0.0000000000
   34        0.0000227800
   35       -0.0000000000
   36       -0.0000028000
   37        0.0000000000
   38       -0.0000005100
   39       -0.0000012000
   40        0.0000000000
   41       -0.0000017800
   42        0.0000017400
   43        0.0000000000
   44       -0.0000020700
   45       -0.0000000000
   46       -0.0000002100
   47        0.0000000000
   48       -0.0000050500
   49       -0.0000001900
   50        0.0000000000
   51        0.0000011800
   52       -0.0000065900
   53        0.0000000000
   54        0.0000018200
   55        0.0000000000
   56        0.9713831300
   57       -0.0106428900
   58        0.0488318200
   59       -0.0178029500
   60       -0.0025635200
   61        0.0002678400
   62       -0.0000000000
   63        0.0001078500
   64       -0.0008498000
   65       -0.0000000000
   66       -0.0002151600
   67       -0.0000347900
   68        0.0000000000
   69       -0.0000045500
   70       -0.0004374800
   71       -0.0000000000
   72       -0.0000422300
   73        0.0026622000
   74        0.0030789000
   75        0.0030742100
   76       -0.0000000000
   77       -0.0000024600
   78       -0.0000000000
   79        0.0084324900
   80        0.0084349700
   81        0.0084435700
   82        0.0000000000
   83        0.0000032400
   84        0.0000000000
   85        0.0032443900
   86        0.0032893100
   87        0.0032740300
   88       -0.0000000000
   89       -0.0000070200
   90       -0.0000000000
   91        0.0003281300
   92        0.0000000000
   93        0.0000748300
   94        0.0001338900
   95        0.0000000000
   96        0.0000333000
   97        0.0001338800
   98        0.0000000000
   99        0.0000327700
  100        0.0000000000
  101        0.0002530900
  102        0.0000000000
  103        0.0000645800
  104        0.0001187300
  105        0.0000000000
  106        0.0000273600
  107        0.0001190600
  108        0.0000000000
  109        0.0000300600
  110       -0.0000000000
  111       -0.0002626300
  112       -0.0001447900
  113       -0.0002992900
  114        0.0012334400
  115        0.0013328300
  116       -0.0000453600
  117       -0.0000000000
  118       -0.0000081900
  119        0.0001152900
  120       -0.0000000000
  121        0.0000314400
  122        0.0002019900
  123        0.0000000000
  124        0.0000404900
  125       -0.0004119800
  126        0.0000000000
  127       -0.0000229000
  128       -0.0000358300
  129       -0.0000391000
  130       -0.0000409200
  131       -0.0000000000
  132       -0.0000001700
  133        0.0000000000
  134       -0.0002966900
  135       -0.0003745500
  136       -0.0003677500
  137       -0.0000000000
  138        0.0000006400
  139       -0.0000000000
  140       -0.0004677100
  141       -0.0004428800
  142       -0.0004544600
  143       -0.0000000000
  144       -0.0000022700
  145        0.0000000000
  146       -0.0000926000
  147       -0.0000000000
  148       -0.0000145600
  149       -0.0000258500
  150       -0.0000000000
  151       -0.0000062700
  152       -0.0000257100
  153       -0.0000000000
  154       -0.0000069800
  155        0.0000000000
  156       -0.0001049800
  157       -0.0000000000
  158       -0.0000222000
  159       -0.0000409100
  160        0.0000000000
  161       -0.0000107100
  162       -0.0000413200
  163       -0.0000000000
  164       -0.0000089200
  165       -0.0000000000
  166        0.0000000000
 Ene=         -1.25421000
 Spin= Alpha
 Occup=        1.00000000
    1       -0.0000097200
    2        0.0006872000
    3        0.0002459500
    4        0.0004757400
    5       -0.0006937500
    6        0.0000047500
    7        0.0000000000
    8       -0.0000639200
    9        0.0000039000
   10        0.0000000000
   11       -0.0000145700
   12        0.0000159500
   13        0.0000000000
   14        0.0001853200
   15       -0.0000949500
   16       -0.0000000000
   17        0.0003677100
   18        0.0000136400
   19        0.0000136200
   20        0.0000016100
   21        0.0000000000
   22        0.0000033000
   23        0.0000000000
   24        0.0000320500
   25        0.0000310500
   26        0.0001215000
   27        0.0000000000
   28       -0.0000215800
   29       -0.0000000000
   30        0.0001967400
   31        0.0002014000
   32       -0.0000593800
   33        0.0000000000
   34        0.0000570600
   35        0.0000000000
   36       -0.0000014200
   37       -0.0000000000
   38       -0.0000353600
   39       -0.0000006100
   40       -0.0000000000
   41       -0.0000090900
   42        0.0000032800
   43       -0.0000000000
   44       -0.0000082400
   45        0.0000000000
   46        0.0000060900
   47       -0.0000000000
   48       -0.0000893700
   49        0.0000026400
   50       -0.0000000000
   51       -0.0000594500
   52       -0.0000086200
   53       -0.0000000000
   54       -0.0000619600
   55       -0.0000000000
   56       -0.0040279300
   57        0.1750761200
   58        0.0502626900
   59        0.1258307400
   60        0.0040394300
   61        0.0112739000
   62        0.0000000000
   63        0.0004152900
   64        0.0118708300
   65        0.0000000000
   66        0.0005634100
   67        0.0091763200
   68        0.0000000000
   69        0.0011464500
   70       -0.0005625000
   71        0.0000000000
   72        0.0003646300
   73        0.0003054700
   74        0.0007924300
   75        0.0008039600
   76       -0.0000000000
   77        0.0000089900
   78       -0.0000000000
   79        0.0013586100
   80       -0.0004922600
   81       -0.0004488900
   82        0.0000000000
   83        0.0000191700
   84       -0.0000000000
   85        0.0020743700
   86       -0.0006786300
   87       -0.0002300500
   88        0.0000000000
   89        0.0002049700
   90       -0.0000000000
   91        0.0009095900
   92        0.0000000000
   93        0.0000202000
   94        0.0004393600
   95        0.0000000000
   96        0.0000154500
   97        0.0004277300
   98        0.0000000000
   99        0.0000150700
  100       -0.0000000000
  101        0.0039136200
  102        0.0000000000
  103        0.0001148700
  104        0.0000749500
  105        0.0000000000
  106        0.0000135700
  107        0.0001379700
  108        0.0000000000
  109        0.0000171400
  110       -0.0000000000
  111       -0.0075425400
  112        0.5207550000
  113        0.1492274100
  114        0.3733571200
  115        0.0277221600
  116        0.0092048200
  117        0.0000000100
  118        0.0010024000
  119        0.0115952400
  120        0.0000000100
  121        0.0012315600
  122        0.0084528400
  123        0.0000000100
  124        0.0018443400
  125       -0.0022489600
  126        0.0000000000
  127        0.0003637500
  128       -0.0054370600
  129        0.0042839900
  130        0.0042980000
  131        0.0000000000
  132       -0.0000838200
  133       -0.0000000000
  134       -0.0157338100
  135        0.0023105600
  136        0.0024267000
  137       -0.0000000000
  138       -0.0002176100
  139       -0.0000000000
  140       -0.0133230700
  141       -0.0048712500
  142       -0.0043622000
  143       -0.0000000000
  144       -0.0005556300
  145       -0.0000000000
  146       -0.0000921700
  147        0.0000000000
  148        0.0000720700
  149        0.0000445500
  150        0.0000000000
  151        0.0000213800
  152        0.0000639700
  153        0.0000000000
  154        0.0000372900
  155       -0.0000000000
  156       -0.0023806100
  157        0.0000000000
  158        0.0002500900
  159        0.0006210000
  160        0.0000000000
  161        0.0000380000
  162        0.0005018600
  163        0.0000000000
  164        0.0000774700
  165        0.0000000000
  166        0.0000000000
 Ene=         -1.18556000
 Spin= Alpha
 Occup=        1.00000000
    1       -0.0094139300
    2        0.5510124200
    3        0.1579965000
    4        0.3979853300
    5        0.0342544200
    6       -0.0003492600
    7        0.0000000200
    8       -0.0018822500
    9       -0.0005448000
   10        0.0000000200
   11       -0.0026385700
   12       -0.0011700300
   13        0.0000000200
   14       -0.0049343900
   15       -0.0001188900
   16        0.0000000000
   17       -0.0008080800
   18        0.0014681200
   19        0.0014685800
   20        0.0014938000
   21        0.0000000000
   22        0.0000032500
   23        0.0000000000
   24       -0.0025196300
   25       -0.0025281800
   26       -0.0022279900
   27        0.0000000000
   28        0.0000625400
   29        0.0000000000
   30       -0.0020507600
   31       -0.0020596700
   32       -0.0010325200
   33        0.0000000000
   34        0.0002813300
   35        0.0000000000
   36       -0.0000058200
   37        0.0000000000
   38       -0.0000811700
   39       -0.0000026500
   40        0.0000000000
   41       -0.0000452400
   42        0.0000055000
   43        0.0000000000
   44       -0.0000444900
   45        0.0000000000
   46        0.0000034900
   47        0.0000000100
   48       -0.0004020500
   49        0.0000020000
   50        0.0000000000
   51       -0.0001125100
   52       -0.0000537500
   53        0.0000000000
   54       -0.0001132500
   55       -0.0000000000
   56       -0.0000011600
   57        0.0005204000
   58        0.0002038000
   59        0.0002498700
   60       -0.0004306200
   61       -0.0000232100
   62       -0.0000000000
   63        0.0000502100
   64       -0.0000401800
   65        0.0000000000
   66        0.0000396800
   67       -0.0000914800
   68        0.0000000000
   69       -0.0000914400
   70        0.0000590900
   71       -0.0000000000
   72       -0.0002631600
   73        0.0000097900
   74        0.0000135900
   75        0.0000035300
   76       -0.0000000000
   77       -0.0000001800
   78       -0.0000000000
   79        0.0000377700
   80        0.0000506800
   81        0.0001284800
   82        0.0000000000
   83        0.0000051400
   84        0.0000000000
   85        0.0001749400
   86        0.0001851500
   87       -0.0000361300
   88       -0.0000000000
   89       -0.0000101600
   90       -0.0000000000
   91        0.0000056800
   92       -0.0000000000
   93        0.0000186900
   94        0.0000022400
   95       -0.0000000000
   96        0.0000011400
   97        0.0000039000
   98       -0.0000000000
   99        0.0000013800
  100       -0.0000000000
  101        0.0000253100
  102       -0.0000000000
  103        0.0000435800
  104        0.0000127900
  105       -0.0000000000
  106        0.0000416700
  107        0.0000086100
  108       -0.0000000000
  109        0.0000397100
  110        0.0000000000
  111        0.0000286600
  112       -0.0010807100
  113       -0.0002413200
  114       -0.0010044500
  115       -0.0006744700
  116       -0.0000512300
  117       -0.0000000000
  118        0.0000486400
  119       -0.0000417100
  120       -0.0000000000
  121        0.0000439500
  122        0.0000568300
  123        0.0000000000
  124       -0.0000669200
  125       -0.0000088700
  126       -0.0000000000
  127       -0.0002869600
  128        0.0000244100
  129        0.0000025200
  130       -0.0000072400
  131       -0.0000000000
  132        0.0000006000
  133       -0.0000000000
  134        0.0001070200
  135        0.0000637400
  136        0.0001388500
  137       -0.0000000000
  138       -0.0000053100
  139        0.0000000000
  140        0.0002341600
  141        0.0002323700
  142        0.0000167300
  143        0.0000000000
  144        0.0000141600
  145       -0.0000000000
  146       -0.0000098900
  147       -0.0000000000
  148        0.0000150000
  149       -0.0000041700
  150       -0.0000000000
  151       -0.0000003000
  152       -0.0000057800
  153       -0.0000000000
  154        0.0000000400
  155        0.0000000000
  156       -0.0000306700
  157       -0.0000000000
  158        0.0000321400
  159       -0.0000173800
  160       -0.0000000000
  161        0.0000357600
  162       -0.0000131900
  163       -0.0000000000
  164        0.0000337600
  165       -0.0000000000
  166        0.0000000000
 Ene=         -1.14963000
 Spin= Alpha
 Occup=        1.00000000
    1       -0.0000002100
    2       -0.0009733300
    3       -0.0002772700
    4       -0.0005678300
    5       -0.0002851700
    6       -0.0000147600
    7       -0.0000000000
    8       -0.0000373900
    9       -0.0000138000
   10       -0.0000000000
   11       -0.0000034400
   12       -0.0000113400
   13        0.0000000000
   14        0.0001809100
   15        0.0001920700
   16       -0.0000000000
   17        0.0001001100
   18        0.0000021400
   19        0.0000021800
   20       -0.0000021000
   21       -0.0000000000
   22       -0.0000062400
   23       -0.0000000000
   24       -0.0000097500
   25       -0.0000105600
   26        0.0000267500
   27       -0.0000000000
   28        0.0000440800
   29       -0.0000000000
   30        0.0000266400
   31        0.0000303600
   32       -0.0000884000
   33        0.0000000000
   34       -0.0001199900
   35        0.0000000000
   36        0.0000020100
   37       -0.0000000000
   38       -0.0000231300
   39        0.0000009100
   40       -0.0000000000
   41       -0.0000071300
   42       -0.0000074700
   43       -0.0000000000
   44       -0.0000065900
   45       -0.0000000000
   46       -0.0000197700
   47       -0.0000000000
   48       -0.0000676000
   49       -0.0000088700
   50       -0.0000000000
   51       -0.0000396300
   52        0.0000153300
   53       -0.0000000000
   54       -0.0000412200
   55        0.0000000000
   56       -0.0093221100
   57        0.5164689500
   58        0.1472451300
   59        0.3811781800
   60        0.0402215400
   61       -0.0125484400
   62        0.0000000000
   63        0.0011893400
   64       -0.0134597500
   65        0.0000000100
   66        0.0017371100
   67       -0.0063645400
   68        0.0000000100
   69        0.0040281800
   70        0.0025183000
   71        0.0000000000
   72        0.0006137900
   73       -0.0009690600
   74        0.0024483800
   75        0.0024660400
   76       -0.0000000000
   77       -0.0000174200
   78       -0.0000000000
   79       -0.0055439600
   80       -0.0008472900
   81       -0.0006292200
   82       -0.0000000000
   83       -0.0000264800
   84       -0.0000000000
   85       -0.0036768900
   86       -0.0029765200
   87       -0.0019280500
   88        0.0000000000
   89        0.0002628100
   90       -0.0000000000
   91       -0.0002116300
   92        0.0000000000
   93        0.0000170500
   94       -0.0001876900
   95        0.0000000000
   96        0.0000060000
   97       -0.0001976100
   98        0.0000000000
   99        0.0000206300
  100        0.0000000000
  101        0.0018630100
  102        0.0000000000
  103        0.0001680800
  104       -0.0002000900
  105        0.0000000000
  106       -0.0000201100
  107       -0.0001448800
  108        0.0000000000
  109       -0.0000111000
  110       -0.0000000000
  111        0.0015082000
  112       -0.1995441800
  113       -0.0568540700
  114       -0.1485723700
  115       -0.0193465100
  116       -0.0173580100
  117       -0.0000000000
  118       -0.0002928400
  119       -0.0187704100
  120       -0.0000000000
  121       -0.0004147500
  122       -0.0127375000
  123       -0.0000000000
  124       -0.0008940500