 Molden2AIM, Version 3.1.0 (02/25/2015)           Time: Wed Apr 23 15:22:44 2025
GAUSSIAN            165 MOL ORBITALS    226 PRIMITIVES        4 NUCLEI
  F    1    (CENTRE  1)   0.00000000  0.00000000  7.55890395  CHARGE =  9.0
  F    2    (CENTRE  2)  -1.79523969  0.00000000  0.00000000  CHARGE =  9.0
  F    3    (CENTRE  3)   1.79523969  0.00000000  0.00000000  CHARGE =  9.0
  H    4    (CENTRE  4)   0.00000000  0.00000000  0.00000000  CHARGE =  1.0
CENTRE ASSIGNMENTS    1  1  1  1  1  1  1  1  1  1  1  1  1  1  1  1  1  1  1  1
CENTRE ASSIGNMENTS    1  1  1  1  1  1  1  1  1  1  1  1  1  1  1  1  1  1  1  1
CENTRE ASSIGNMENTS    1  1  1  1  1  1  1  1  1  1  1  1  1  1  1  1  1  1  1  1
CENTRE ASSIGNMENTS    1  1  1  1  1  1  1  1  1  1  1  1  1  1  1  2  2  2  2  2
CENTRE ASSIGNMENTS    2  2  2  2  2  2  2  2  2  2  2  2  2  2  2  2  2  2  2  2
CENTRE ASSIGNMENTS    2  2  2  2  2  2  2  2  2  2  2  2  2  2  2  2  2  2  2  2
CENTRE ASSIGNMENTS    2  2  2  2  2  2  2  2  2  2  2  2  2  2  2  2  2  2  2  2
CENTRE ASSIGNMENTS    2  2  2  2  2  2  2  2  2  2  3  3  3  3  3  3  3  3  3  3
CENTRE ASSIGNMENTS    3  3  3  3  3  3  3  3  3  3  3  3  3  3  3  3  3  3  3  3
CENTRE ASSIGNMENTS    3  3  3  3  3  3  3  3  3  3  3  3  3  3  3  3  3  3  3  3
CENTRE ASSIGNMENTS    3  3  3  3  3  3  3  3  3  3  3  3  3  3  3  3  3  3  3  3
CENTRE ASSIGNMENTS    3  3  3  3  3  4
TYPE ASSIGNMENTS      1  1  1  1  1  1  1  1  1  1  1  1  1  1  1  1  1  1  1  2
TYPE ASSIGNMENTS      2  2  3  3  3  4  4  4  2  3  4  2  3  4  2  3  4  5  6  7
TYPE ASSIGNMENTS      8  9 10  5  6  7  8  9 10  5  6  7  8  9 10 11 12 13 17 14
TYPE ASSIGNMENTS     15 18 19 16 20 11 12 13 17 14 15 18 19 16 20  1  1  1  1  1
TYPE ASSIGNMENTS      1  1  1  1  1  1  1  1  1  1  1  1  1  1  2  2  2  3  3  3
TYPE ASSIGNMENTS      4  4  4  2  3  4  2  3  4  2  3  4  5  6  7  8  9 10  5  6
TYPE ASSIGNMENTS      7  8  9 10  5  6  7  8  9 10 11 12 13 17 14 15 18 19 16 20
TYPE ASSIGNMENTS     11 12 13 17 14 15 18 19 16 20  1  1  1  1  1  1  1  1  1  1
TYPE ASSIGNMENTS      1  1  1  1  1  1  1  1  1  2  2  2  3  3  3  4  4  4  2  3
TYPE ASSIGNMENTS      4  2  3  4  2  3  4  5  6  7  8  9 10  5  6  7  8  9 10  5
TYPE ASSIGNMENTS      6  7  8  9 10 11 12 13 17 14 15 18 19 16 20 11 12 13 17 14
TYPE ASSIGNMENTS     15 18 19 16 20  1
EXPONENTS  0.1950000D+05 0.2923000D+04 0.6645000D+03 0.1875000D+03 0.6062000D+02
EXPONENTS  0.2142000D+02 0.7950000D+01 0.8815000D+00 0.1950000D+05 0.2923000D+04
EXPONENTS  0.6645000D+03 0.1875000D+03 0.6062000D+02 0.2142000D+02 0.7950000D+01
EXPONENTS  0.8815000D+00 0.2257000D+01 0.3041000D+00 0.9158000D-01 0.4388000D+02
EXPONENTS  0.9926000D+01 0.2930000D+01 0.4388000D+02 0.9926000D+01 0.2930000D+01
EXPONENTS  0.4388000D+02 0.9926000D+01 0.2930000D+01 0.9132000D+00 0.9132000D+00
EXPONENTS  0.9132000D+00 0.2672000D+00 0.2672000D+00 0.2672000D+00 0.7361000D-01
EXPONENTS  0.7361000D-01 0.7361000D-01 0.3107000D+01 0.3107000D+01 0.3107000D+01
EXPONENTS  0.3107000D+01 0.3107000D+01 0.3107000D+01 0.8550000D+00 0.8550000D+00
EXPONENTS  0.8550000D+00 0.8550000D+00 0.8550000D+00 0.8550000D+00 0.2920000D+00
EXPONENTS  0.2920000D+00 0.2920000D+00 0.2920000D+00 0.2920000D+00 0.2920000D+00
EXPONENTS  0.1917000D+01 0.1917000D+01 0.1917000D+01 0.1917000D+01 0.1917000D+01
EXPONENTS  0.1917000D+01 0.1917000D+01 0.1917000D+01 0.1917000D+01 0.1917000D+01
EXPONENTS  0.7240000D+00 0.7240000D+00 0.7240000D+00 0.7240000D+00 0.7240000D+00
EXPONENTS  0.7240000D+00 0.7240000D+00 0.7240000D+00 0.7240000D+00 0.7240000D+00
EXPONENTS  0.1950000D+05 0.2923000D+04 0.6645000D+03 0.1875000D+03 0.6062000D+02
EXPONENTS  0.2142000D+02 0.7950000D+01 0.8815000D+00 0.1950000D+05 0.2923000D+04
EXPONENTS  0.6645000D+03 0.1875000D+03 0.6062000D+02 0.2142000D+02 0.7950000D+01
EXPONENTS  0.8815000D+00 0.2257000D+01 0.3041000D+00 0.9158000D-01 0.4388000D+02
EXPONENTS  0.9926000D+01 0.2930000D+01 0.4388000D+02 0.9926000D+01 0.2930000D+01
EXPONENTS  0.4388000D+02 0.9926000D+01 0.2930000D+01 0.9132000D+00 0.9132000D+00
EXPONENTS  0.9132000D+00 0.2672000D+00 0.2672000D+00 0.2672000D+00 0.7361000D-01
EXPONENTS  0.7361000D-01 0.7361000D-01 0.3107000D+01 0.3107000D+01 0.3107000D+01
EXPONENTS  0.3107000D+01 0.3107000D+01 0.3107000D+01 0.8550000D+00 0.8550000D+00
EXPONENTS  0.8550000D+00 0.8550000D+00 0.8550000D+00 0.8550000D+00 0.2920000D+00
EXPONENTS  0.2920000D+00 0.2920000D+00 0.2920000D+00 0.2920000D+00 0.2920000D+00
EXPONENTS  0.1917000D+01 0.1917000D+01 0.1917000D+01 0.1917000D+01 0.1917000D+01
EXPONENTS  0.1917000D+01 0.1917000D+01 0.1917000D+01 0.1917000D+01 0.1917000D+01
EXPONENTS  0.7240000D+00 0.7240000D+00 0.7240000D+00 0.7240000D+00 0.7240000D+00
EXPONENTS  0.7240000D+00 0.7240000D+00 0.7240000D+00 0.7240000D+00 0.7240000D+00
EXPONENTS  0.1950000D+05 0.2923000D+04 0.6645000D+03 0.1875000D+03 0.6062000D+02
EXPONENTS  0.2142000D+02 0.7950000D+01 0.8815000D+00 0.1950000D+05 0.2923000D+04
EXPONENTS  0.6645000D+03 0.1875000D+03 0.6062000D+02 0.2142000D+02 0.7950000D+01
EXPONENTS  0.8815000D+00 0.2257000D+01 0.3041000D+00 0.9158000D-01 0.4388000D+02
EXPONENTS  0.9926000D+01 0.2930000D+01 0.4388000D+02 0.9926000D+01 0.2930000D+01
EXPONENTS  0.4388000D+02 0.9926000D+01 0.2930000D+01 0.9132000D+00 0.9132000D+00
EXPONENTS  0.9132000D+00 0.2672000D+00 0.2672000D+00 0.2672000D+00 0.7361000D-01
EXPONENTS  0.7361000D-01 0.7361000D-01 0.3107000D+01 0.3107000D+01 0.3107000D+01
EXPONENTS  0.3107000D+01 0.3107000D+01 0.3107000D+01 0.8550000D+00 0.8550000D+00
EXPONENTS  0.8550000D+00 0.8550000D+00 0.8550000D+00 0.8550000D+00 0.2920000D+00
EXPONENTS  0.2920000D+00 0.2920000D+00 0.2920000D+00 0.2920000D+00 0.2920000D+00
EXPONENTS  0.1917000D+01 0.1917000D+01 0.1917000D+01 0.1917000D+01 0.1917000D+01
EXPONENTS  0.1917000D+01 0.1917000D+01 0.1917000D+01 0.1917000D+01 0.1917000D+01
EXPONENTS  0.7240000D+00 0.7240000D+00 0.7240000D+00 0.7240000D+00 0.7240000D+00
EXPONENTS  0.7240000D+00 0.7240000D+00 0.7240000D+00 0.7240000D+00 0.7240000D+00
EXPONENTS  0.1000000D+01
MO    1     MO 0.0        OCC NO =    1.0000000  ORB. ENERGY =  -26.097200
 -0.65724383D-05 -0.12251310D-04 -0.20768982D-04 -0.31450360D-04 -0.39328785D-04
 -0.33858421D-04 -0.13016413D-04  0.56402248D-07  0.41407205D-05  0.77755398D-05
  0.13240403D-04  0.20741013D-04  0.27795398D-04  0.29897698D-04  0.17950539D-04
 -0.11805029D-04 -0.45473879D-04  0.42179396D-04  0.14969823D-04  0.61387036D-05
  0.60035181D-05  0.39667782D-05 -0.00000000D+00 -0.00000000D+00 -0.00000000D+00
 -0.35078307D-05 -0.34305818D-05 -0.22667304D-05 -0.36265388D-05  0.00000000D+00
  0.36010894D-05 -0.36474545D-05  0.00000000D+00  0.31408636D-05  0.17100810D-05
 -0.00000000D+00 -0.33649628D-05 -0.66539792D-04 -0.69292338D-04 -0.14241430D-04
 -0.00000000D+00 -0.65501970D-04  0.00000000D+00 -0.47247860D-04 -0.46046643D-04
 -0.69094990D-04  0.00000000D+00  0.26505576D-04 -0.00000000D+00 -0.13065904D-04
 -0.13451542D-04 -0.62866774D-05 -0.00000000D+00 -0.75425007D-05  0.00000000D+00
  0.19479402D-04 -0.00000000D+00 -0.70023996D-06  0.18931754D-04 -0.00000000D+00
 -0.22205666D-04 -0.22775042D-04 -0.00000000D+00 -0.26618330D-04 -0.00000000D+00
  0.46979691D-06 -0.00000000D+00 -0.30323255D-05  0.60483209D-06 -0.00000000D+00
  0.23079119D-05  0.10711895D-04 -0.00000000D+00  0.34061596D-05  0.00000000D+00
  0.67263653D-04  0.12538236D-03  0.21255393D-03  0.32186930D-03  0.40249868D-03
  0.34651387D-03  0.13321258D-03 -0.57723193D-06  0.27510910D-04  0.51660616D-04
  0.87969119D-04  0.13780310D-03  0.18467237D-03  0.19864004D-03  0.11926322D-03
 -0.78432509D-04 -0.33411818D-03  0.32773671D-03  0.15144473D-03  0.23853248D-03
  0.23327956D-03  0.15413767D-03 -0.00000000D+00 -0.00000000D+00 -0.00000000D+00
 -0.47153339D-04 -0.46114936D-04 -0.30470088D-04 -0.85357271D-04  0.00000000D+00
  0.35451007D-04 -0.36395133D-04  0.00000000D+00  0.98415551D-05  0.21720050D-04
 -0.00000000D+00 -0.11017971D-05 -0.38643343D-03 -0.45369128D-03 -0.47499359D-03
  0.00000000D+00  0.82913886D-06  0.00000000D+00 -0.33284966D-03 -0.42316615D-03
 -0.41485773D-03 -0.00000000D+00 -0.43345177D-06 -0.00000000D+00 -0.78137692D-04
 -0.77135413D-04 -0.79290791D-04  0.00000000D+00  0.27114645D-06  0.00000000D+00
  0.49112284D-03 -0.00000000D+00 -0.81227835D-04  0.21849806D-03 -0.00000000D+00
 -0.80709055D-04  0.21636290D-03 -0.00000000D+00 -0.87826256D-04 -0.00000000D+00
  0.48488736D-04 -0.00000000D+00 -0.14165089D-04  0.56710966D-04 -0.00000000D+00
 -0.14659220D-04  0.57395382D-04 -0.00000000D+00 -0.12590057D-04  0.00000000D+00
  0.59352231D+00  0.11063513D+01  0.18755374D+01  0.28401164D+01  0.35515756D+01
  0.30575757D+01  0.11754437D+01 -0.50933901D-02  0.25875513D-02  0.48589630D-02
  0.82739761D-02  0.12961135D-01  0.17369445D-01  0.18683180D-01  0.11217357D-01
 -0.73770058D-02  0.62967595D-01 -0.51772174D-02 -0.29754556D-03 -0.24092051D-02
 -0.23561499D-02 -0.15568079D-02  0.00000000D+00  0.00000000D+00  0.00000000D+00
  0.24561560D-03  0.24020670D-03  0.15871472D-03  0.15730907D-02 -0.00000000D+00
 -0.62694585D-04  0.53917702D-04 -0.00000000D+00  0.10109911D-04  0.22355114D-04
  0.00000000D+00 -0.27506671D-05  0.26944906D-01  0.41679521D-01  0.41645054D-01
  0.00000000D+00 -0.17349731D-03 -0.00000000D+00  0.10431291D-01  0.10627515D-01
  0.10638952D-01 -0.00000000D+00 -0.94925937D-05  0.00000000D+00  0.59739090D-03
  0.61991069D-03  0.61690767D-03  0.00000000D+00  0.18120519D-05 -0.00000000D+00
 -0.30364951D-02  0.00000000D+00  0.87593653D-04 -0.28021842D-02  0.00000000D+00
  0.77577487D-04 -0.28028960D-02  0.00000000D+00  0.78573895D-04 -0.00000000D+00
 -0.28727369D-03  0.00000000D+00  0.20713773D-05 -0.29560372D-03  0.00000000D+00
  0.22283287D-06 -0.29616081D-03  0.00000000D+00  0.40746583D-05  0.00000000D+00
  0.00000000D+00
MO    2     MO 0.0        OCC NO =    1.0000000  ORB. ENERGY =  -25.932400
 -0.59316998D+00 -0.11056945D+01 -0.18744241D+01 -0.28384305D+01 -0.35494673D+01
 -0.30557607D+01 -0.11747460D+01  0.50903666D-02 -0.24898265D-02 -0.46754532D-02
 -0.79614905D-02 -0.12471628D-01 -0.16713448D-01 -0.17977567D-01 -0.10793708D-01
  0.70983964D-02 -0.64380317D-01  0.48326871D-02  0.15658812D-03  0.23482228D-03
  0.22965106D-03  0.15174017D-03 -0.00000000D+00 -0.00000000D+00 -0.00000000D+00
  0.92660696D-03  0.90620137D-03  0.59876556D-03 -0.97585705D-04  0.00000000D+00
 -0.32719015D-03 -0.51809188D-05  0.00000000D+00  0.34338648D-05  0.19948212D-06
 -0.00000000D+00 -0.40153291D-05 -0.33970598D-01 -0.33973710D-01 -0.33920095D-01
 -0.00000000D+00  0.15960923D-04 -0.00000000D+00 -0.10088694D-01 -0.10087268D-01
 -0.10105449D-01  0.00000000D+00  0.54181471D-06  0.00000000D+00 -0.54301391D-03
 -0.54336519D-03 -0.53851224D-03 -0.00000000D+00 -0.10250659D-06 -0.00000000D+00
  0.17989801D-03 -0.00000000D+00  0.55834588D-03  0.17992283D-03 -0.00000000D+00
  0.54731273D-03  0.18063455D-03 -0.00000000D+00  0.54460819D-03 -0.00000000D+00
  0.20272449D-04 -0.00000000D+00  0.50211325D-04  0.20277792D-04 -0.00000000D+00
  0.52524892D-04  0.20405125D-04 -0.00000000D+00  0.53177474D-04  0.00000000D+00
  0.10145133D-03  0.18910967D-03  0.32058738D-03  0.48546378D-03  0.60707416D-03
  0.52263430D-03  0.20091971D-03 -0.87061798D-06 -0.39341540D-05 -0.73876444D-05
 -0.12579884D-04 -0.19706314D-04 -0.26408780D-04 -0.28406203D-04 -0.17055047D-04
  0.11216116D-04  0.57364019D-04 -0.46037766D-04 -0.12669238D-04  0.12614699D-04
  0.12336900D-04  0.81515113D-05  0.00000000D+00  0.00000000D+00  0.00000000D+00
 -0.16594737D-04 -0.16229291D-04 -0.10723379D-04 -0.10039786D-04 -0.00000000D+00
  0.14544329D-04 -0.24754496D-05 -0.00000000D+00  0.52083021D-05 -0.12624759D-06
  0.00000000D+00 -0.26828979D-05  0.69292338D-04  0.78028677D-04  0.23456474D-04
  0.00000000D+00 -0.49748331D-05  0.00000000D+00  0.52315493D-04  0.49224863D-04
  0.71847779D-04 -0.00000000D+00  0.25356929D-05 -0.00000000D+00  0.12367172D-04
  0.13886818D-04  0.70808644D-05  0.00000000D+00 -0.87295931D-06  0.00000000D+00
  0.20306959D-04  0.00000000D+00 -0.24635715D-04  0.24056138D-04  0.00000000D+00
 -0.45977116D-04  0.24340826D-04  0.00000000D+00 -0.52524941D-04  0.00000000D+00
  0.38865017D-05  0.00000000D+00 -0.67124014D-05  0.24670782D-05  0.00000000D+00
 -0.14643303D-05  0.26262446D-05  0.00000000D+00  0.20691624D-06 -0.00000000D+00
  0.56500980D-05  0.10532027D-04  0.17854376D-04  0.27036787D-04  0.33809597D-04
  0.29106914D-04  0.11189760D-04 -0.48487063D-07 -0.43144242D-05 -0.81017246D-05
 -0.13795840D-04 -0.21611101D-04 -0.28961418D-04 -0.31151910D-04 -0.18703566D-04
  0.12300252D-04  0.47022484D-04 -0.45121330D-04 -0.12558895D-04 -0.12884532D-04
 -0.12600791D-04 -0.83258752D-05  0.00000000D+00  0.00000000D+00  0.00000000D+00
 -0.17336778D-04 -0.16954991D-04 -0.11202879D-04  0.10472426D-04 -0.00000000D+00
  0.14773374D-04  0.24097297D-05 -0.00000000D+00  0.52685454D-05  0.78699795D-07
  0.00000000D+00 -0.27380970D-05  0.64624978D-04  0.72403911D-04  0.17353003D-04
 -0.00000000D+00  0.51821179D-05  0.00000000D+00  0.50501155D-04  0.47473088D-04
  0.70283694D-04  0.00000000D+00 -0.25790380D-05 -0.00000000D+00  0.12391990D-04
  0.13797090D-04  0.69224089D-05 -0.00000000D+00  0.89610596D-06  0.00000000D+00
 -0.20879882D-04  0.00000000D+00 -0.25208638D-04 -0.25337234D-04  0.00000000D+00
 -0.46688836D-04 -0.25479578D-04  0.00000000D+00 -0.53379005D-04 -0.00000000D+00
 -0.40786914D-05  0.00000000D+00 -0.68262915D-05 -0.24511616D-05  0.00000000D+00
 -0.15279968D-05 -0.26103280D-05  0.00000000D+00  0.14324970D-06  0.00000000D+00
  0.00000000D+00
MO    3     MO 0.0        OCC NO =    1.0000000  ORB. ENERGY =  -25.931100
  0.88935597D-04  0.16577981D-03  0.28103753D-03  0.42557364D-03  0.53218133D-03
  0.45815855D-03  0.17613287D-03 -0.76321258D-06  0.47087786D-05  0.88422522D-05
  0.15056830D-04  0.23586436D-04  0.31608599D-04  0.33999310D-04  0.20413141D-04
 -0.13424540D-04 -0.36116628D-04  0.42491685D-04  0.15169152D-04 -0.50593711D-05
 -0.49479545D-05 -0.32693227D-05  0.00000000D+00  0.00000000D+00  0.00000000D+00
 -0.49244546D-05 -0.48160090D-05 -0.31821408D-05  0.28757816D-05 -0.00000000D+00
  0.48353850D-05  0.34639864D-05 -0.00000000D+00  0.35735196D-05 -0.16761963D-05
  0.00000000D+00 -0.34365577D-05 -0.62111785D-04 -0.64624978D-04 -0.87363396D-05
 -0.00000000D+00  0.65501970D-04  0.00000000D+00 -0.46597201D-04 -0.45508598D-04
 -0.68944838D-04  0.00000000D+00 -0.26483903D-04  0.00000000D+00 -0.13285450D-04
 -0.13638635D-04 -0.63840417D-05 -0.00000000D+00  0.75325807D-05 -0.00000000D+00
 -0.17824290D-04  0.00000000D+00 -0.32465671D-05 -0.17081282D-04  0.00000000D+00
 -0.25337234D-04  0.24767858D-04  0.00000000D+00 -0.29465211D-04 -0.00000000D+00
 -0.14948084D-06  0.00000000D+00 -0.35946582D-05 -0.30241604D-06  0.00000000D+00
  0.18781628D-05 -0.10489062D-04  0.00000000D+00  0.28968274D-05  0.00000000D+00
  0.59334161D+00  0.11060145D+01  0.18749664D+01  0.28392518D+01  0.35504943D+01
  0.30566449D+01  0.11750859D+01 -0.50918395D-02  0.24982558D-02  0.46912820D-02
  0.79884442D-02  0.12513851D-01  0.16770032D-01  0.18038430D-01  0.10830250D-01
 -0.71224280D-02  0.64085780D-01 -0.51959430D-02 -0.30415663D-03  0.18068026D-02
  0.17670135D-02  0.11675405D-02 -0.00000000D+00 -0.00000000D+00 -0.00000000D+00
  0.72753757D-03  0.71151585D-03  0.47012861D-03 -0.10813448D-02 -0.00000000D+00
 -0.27378459D-03 -0.95266472D-05  0.00000000D+00 -0.12459398D-05 -0.23909435D-04
 -0.00000000D+00 -0.23079808D-05  0.31860114D-01  0.36847008D-01  0.36790880D-01
 -0.00000000D+00 -0.50992040D-04 -0.00000000D+00  0.10551300D-01  0.10554404D-01
  0.10565165D-01  0.00000000D+00  0.70219187D-05  0.00000000D+00  0.61938759D-03
  0.62796328D-03  0.62504617D-03 -0.00000000D+00 -0.23212782D-05 -0.00000000D+00
  0.20888158D-02  0.00000000D+00  0.47635415D-03  0.19058440D-02  0.00000000D+00
  0.47400556D-03  0.19057016D-02  0.00000000D+00  0.46646133D-03  0.00000000D+00
  0.18015288D-03  0.00000000D+00  0.45968916D-04  0.18897819D-03  0.00000000D+00
  0.43547910D-04  0.18950344D-03  0.00000000D+00  0.47845401D-04 -0.00000000D+00
 -0.16042003D-03 -0.29902988D-03 -0.50692916D-03 -0.76764015D-03 -0.95993670D-03
 -0.82641608D-03 -0.31770451D-03  0.13766657D-05  0.33987241D-04  0.63822018D-04
  0.10867789D-03  0.17024327D-03  0.22814601D-03  0.24540180D-03  0.14733892D-03
 -0.96896271D-04 -0.39278145D-03  0.35999000D-03  0.15813767D-03 -0.30599077D-03
 -0.29925229D-03 -0.19772864D-03 -0.00000000D+00 -0.00000000D+00 -0.00000000D+00
 -0.55248333D-04 -0.54031663D-04 -0.35701004D-04  0.14670304D-03 -0.00000000D+00
  0.40006449D-04  0.55311511D-04  0.00000000D+00  0.11087495D-04 -0.22515793D-04
  0.00000000D+00 -0.12515454D-05 -0.42879870D-03 -0.46793271D-03 -0.48971372D-03
 -0.00000000D+00 -0.35238401D-05  0.00000000D+00 -0.37123855D-03 -0.46866223D-03
 -0.46015362D-03 -0.00000000D+00  0.13870457D-05 -0.00000000D+00 -0.89290674D-04
 -0.84550370D-04 -0.86761112D-04 -0.00000000D+00 -0.75061274D-06  0.00000000D+00
 -0.58947473D-03 -0.00000000D+00 -0.92686307D-04 -0.36795927D-03 -0.00000000D+00
 -0.89249696D-04 -0.36596646D-03 -0.00000000D+00 -0.99356121D-04  0.00000000D+00
 -0.74726182D-04 -0.00000000D+00 -0.15802260D-04 -0.65114949D-04  0.00000000D+00
 -0.17046715D-04 -0.65767531D-04 -0.00000000D+00 -0.14197637D-04 -0.00000000D+00
  0.00000000D+00
MO    4     MO 0.0        OCC NO =    1.0000000  ORB. ENERGY =   -1.254210
 -0.59371841D-05 -0.11067168D-04 -0.18761571D-04 -0.28410548D-04 -0.35527490D-04
 -0.30585860D-04 -0.11758321D-04  0.50950730D-07 -0.16130970D-03 -0.30291105D-03
 -0.51580528D-03 -0.80800592D-03 -0.10828230D-02 -0.11647221D-02 -0.69929763D-03
  0.45988754D-03  0.32277924D-03  0.13884878D-03 -0.82312078D-04  0.32042684D-04
  0.31337045D-04  0.20705711D-04  0.00000000D+00  0.00000000D+00  0.00000000D+00
 -0.43119334D-03 -0.42169767D-03 -0.27863348D-03  0.49626320D-05  0.00000000D+00
 -0.18539884D-04  0.43676351D-05  0.00000000D+00  0.50746716D-04 -0.51892677D-05
 -0.00000000D+00  0.20096321D-04  0.16323791D-03  0.16299856D-03  0.19267818D-04
  0.00000000D+00  0.68403956D-04  0.00000000D+00  0.40103123D-04  0.38851855D-04
  0.15202900D-03  0.00000000D+00 -0.46769446D-04 -0.00000000D+00  0.37559700D-04
  0.38449342D-04 -0.11336256D-04  0.00000000D+00  0.18867825D-04  0.00000000D+00
 -0.90394613D-05 -0.00000000D+00 -0.22509532D-03 -0.86829848D-05 -0.00000000D+00
 -0.12939071D-03  0.46688836D-04 -0.00000000D+00 -0.11729147D-03  0.00000000D+00
  0.43349442D-05 -0.00000000D+00 -0.63614773D-04  0.42019913D-05 -0.00000000D+00
 -0.94624388D-04 -0.13720138D-04 -0.00000000D+00 -0.98619463D-04 -0.00000000D+00
 -0.24603459D-02 -0.45861913D-02 -0.77747217D-02 -0.11773220D-01 -0.14722453D-01
 -0.12674661D-01 -0.48726023D-02  0.21113783D-04 -0.41096445D-01 -0.77171845D-01
 -0.13141034D+00 -0.20585352D+00 -0.27586794D+00 -0.29673316D+00 -0.17815820D+00
  0.11716433D+00  0.65963621D-01  0.36724776D-01  0.47927046D-03  0.76051792D-01
  0.74376992D-01  0.49144023D-01  0.00000000D+00  0.00000000D+00  0.00000000D+00
  0.28014750D-02  0.27397813D-02  0.18102894D-02  0.15105272D-01  0.00000000D+00
  0.71692218D-03  0.25127785D-02  0.00000000D+00  0.31393575D-03 -0.30742107D-04
  0.00000000D+00  0.19927991D-04  0.36557393D-02  0.94834762D-02  0.96214625D-02
 -0.00000000D+00  0.18634896D-03 -0.00000000D+00  0.16999845D-02 -0.61594893D-03
 -0.56168146D-03  0.00000000D+00  0.41546352D-04 -0.00000000D+00  0.39601868D-03
 -0.12955748D-03 -0.43918923D-04  0.00000000D+00  0.67776693D-04 -0.00000000D+00
  0.57902842D-02  0.00000000D+00  0.12858952D-03  0.62540266D-02  0.00000000D+00
  0.21992150D-03  0.60884805D-02  0.00000000D+00  0.21451243D-03 -0.00000000D+00
  0.27857676D-02  0.00000000D+00  0.81766017D-04  0.11929517D-03  0.00000000D+00
  0.21598872D-04  0.21960180D-03  0.00000000D+00  0.27281110D-04 -0.00000000D+00
 -0.46071449D-02 -0.85879177D-02 -0.14558632D-01 -0.22046059D-01 -0.27568674D-01
 -0.23734061D-01 -0.91242394D-02  0.39536823D-04 -0.12223928D+00 -0.22954372D+00
 -0.39087337D+00 -0.61230082D+00 -0.82055513D+00 -0.88261768D+00 -0.52992249D+00
  0.34849933D+00  0.19584269D+00  0.10896746D+00  0.32891800D-02  0.62094134D-01
  0.60726707D-01  0.40124703D-01  0.67458282D-07  0.65972726D-07  0.43590970D-07
  0.67620182D-02  0.66131061D-02  0.43695588D-02  0.14754592D-01  0.12724697D-07
  0.15671228D-02  0.23146658D-02  0.27383292D-08  0.50504100D-03 -0.12291159D-03
  0.00000000D+00  0.19879896D-04 -0.65068497D-01  0.51269030D-01  0.51436696D-01
  0.00000000D+00 -0.17374605D-02 -0.00000000D+00 -0.19687205D-01  0.28911286D-02
  0.30364508D-02 -0.00000000D+00 -0.47161720D-03 -0.00000000D+00 -0.25435118D-02
 -0.92997198D-03 -0.83278908D-03 -0.00000000D+00 -0.18372817D-03 -0.00000000D+00
 -0.58673743D-03  0.00000000D+00  0.45878449D-03  0.63414258D-03  0.00000000D+00
  0.30433150D-03  0.91057465D-03  0.00000000D+00  0.53080082D-03 -0.00000000D+00
 -0.16945503D-02  0.00000000D+00  0.17801744D-03  0.98842296D-03  0.00000000D+00
  0.60483209D-04  0.79879219D-03  0.00000000D+00  0.12330616D-03  0.00000000D+00
  0.00000000D+00
MO    5     MO 0.0        OCC NO =    1.0000000  ORB. ENERGY =   -1.185560
 -0.57502300D-02 -0.10718678D-01 -0.18170794D-01 -0.27515937D-01 -0.34408776D-01
 -0.29622751D-01 -0.11388067D-01  0.49346358D-04 -0.12934175D+00 -0.24288090D+00
 -0.41358428D+00 -0.64787732D+00 -0.86823183D+00 -0.93390040D+00 -0.56071257D+00
  0.36874818D+00  0.20735104D+00  0.11615542D+00  0.40642198D-02 -0.23560480D-02
 -0.23041634D-02 -0.15224582D-02  0.13491656D-06  0.13194545D-06  0.87181939D-07
 -0.12697335D-01 -0.12417716D-01 -0.82049103D-02 -0.69324152D-03  0.25449395D-07
 -0.33575005D-02 -0.32039273D-03  0.54766584D-08 -0.13511984D-02 -0.64976518D-05
  0.00000000D+00 -0.44163702D-04  0.17569856D-01  0.17575361D-01  0.17877184D-01
  0.00000000D+00  0.67367532D-04  0.00000000D+00 -0.31527311D-02 -0.31634294D-02
 -0.27878114D-02  0.00000000D+00  0.13554037D-03  0.00000000D+00 -0.39151128D-03
 -0.39321230D-03 -0.19711874D-03  0.00000000D+00  0.93026380D-04  0.00000000D+00
 -0.37049060D-04  0.00000000D+00 -0.51671343D-03 -0.37721163D-04  0.00000000D+00
 -0.64396432D-03  0.78289207D-04  0.00000000D+00 -0.63328851D-03  0.00000000D+00
  0.24842291D-05  0.71181351D-08 -0.28618462D-03  0.31833268D-05  0.00000000D+00
 -0.17907805D-03 -0.85551907D-04  0.00000000D+00 -0.18025588D-03 -0.00000000D+00
 -0.70855283D-06 -0.13207732D-05 -0.22390352D-05 -0.33905592D-05 -0.42399062D-05
 -0.36501643D-05 -0.14032564D-05  0.60805398D-08 -0.12215595D-03 -0.22938724D-03
 -0.39060691D-03 -0.61188341D-03 -0.81999576D-03 -0.88201599D-03 -0.52956125D-03
  0.34826175D-03  0.26746253D-03  0.72926694D-04 -0.51092219D-04 -0.15657067D-03
 -0.15312270D-03 -0.10117464D-03 -0.00000000D+00 -0.00000000D+00 -0.00000000D+00
  0.33870803D-03  0.33124906D-03  0.21887026D-03 -0.51127835D-04  0.00000000D+00
  0.50491600D-04 -0.25050235D-04  0.00000000D+00 -0.25039282D-04  0.32294242D-05
 -0.00000000D+00 -0.14382388D-04  0.11716269D-03  0.16263953D-03  0.42245588D-04
 -0.00000000D+00 -0.37311249D-05 -0.00000000D+00  0.47260373D-04  0.63414236D-04
  0.16076285D-03  0.00000000D+00  0.11139710D-04  0.00000000D+00  0.33397855D-04
  0.35347049D-04 -0.68975905D-05 -0.00000000D+00 -0.33595707D-05 -0.00000000D+00
  0.36157845D-04 -0.00000000D+00  0.11897713D-03  0.31885059D-04 -0.00000000D+00
  0.16227217D-04  0.55514165D-04 -0.00000000D+00  0.19643474D-04 -0.00000000D+00
  0.18016000D-04 -0.00000000D+00  0.31020833D-04  0.20357375D-04 -0.00000000D+00
  0.66324613D-04  0.13704222D-04 -0.00000000D+00  0.63204953D-04  0.00000000D+00
  0.17506142D-04  0.32632206D-04  0.55319612D-04  0.83770196D-04  0.10475492D-03
  0.90184232D-04  0.34670111D-04 -0.15023127D-06  0.25368016D-03  0.47636642D-03
  0.81116985D-03  0.12706928D-02  0.17028778D-02  0.18316747D-02  0.10997351D-02
 -0.72323205D-03 -0.31670293D-03 -0.29315731D-03 -0.80024544D-04 -0.34558878D-03
 -0.33797828D-03 -0.22331654D-03 -0.00000000D+00 -0.00000000D+00 -0.00000000D+00
  0.32811708D-03  0.32089134D-03  0.21202648D-03 -0.53074713D-04 -0.00000000D+00
  0.55925045D-04  0.15561925D-04  0.00000000D+00 -0.18324899D-04 -0.48476888D-06
 -0.00000000D+00 -0.15683120D-04  0.29212884D-03  0.30158323D-04 -0.86645341D-04
 -0.00000000D+00  0.12437083D-04 -0.00000000D+00  0.13391065D-03  0.79755789D-04
  0.17373849D-03 -0.00000000D+00 -0.11508144D-04  0.00000000D+00  0.44703565D-04
  0.44361835D-04  0.31939300D-05  0.00000000D+00  0.46822363D-05 -0.00000000D+00
 -0.62957938D-04 -0.00000000D+00  0.95487267D-04 -0.59357453D-04 -0.00000000D+00
 -0.42703204D-05 -0.82274840D-04 -0.00000000D+00  0.56937605D-06  0.00000000D+00
 -0.21831320D-04 -0.00000000D+00  0.22877686D-04 -0.27663110D-04 -0.00000000D+00
  0.56917883D-04 -0.20994040D-04 -0.00000000D+00  0.53734556D-04 -0.00000000D+00
  0.00000000D+00
MO    6     MO 0.0        OCC NO =    1.0000000  ORB. ENERGY =   -1.149630
 -0.12827250D-06 -0.23910549D-06 -0.40534259D-06 -0.61380814D-06 -0.76756923D-06
 -0.66080561D-06 -0.25403780D-06  0.11007874D-08  0.22847435D-03  0.42903436D-03
  0.73057153D-03  0.11444360D-02  0.15336788D-02  0.16496784D-02  0.99046473D-03
 -0.65137128D-03 -0.36388290D-03 -0.16572604D-03 -0.33834862D-04 -0.99568424D-04
 -0.97375744D-04 -0.64340271D-04 -0.00000000D+00 -0.00000000D+00 -0.00000000D+00
 -0.25222652D-03 -0.24667202D-03 -0.16298664D-03 -0.17560083D-04 -0.00000000D+00
 -0.43772959D-05 -0.31052653D-05  0.00000000D+00  0.49539113D-04  0.10497132D-04
 -0.00000000D+00  0.54712753D-05  0.25610639D-04  0.26089343D-04 -0.25131936D-04
 -0.00000000D+00 -0.12934566D-03 -0.00000000D+00 -0.12199858D-04 -0.13213385D-04
  0.33471405D-04 -0.00000000D+00  0.95532770D-04 -0.00000000D+00  0.50858514D-05
  0.57960379D-05 -0.16876474D-04  0.00000000D+00 -0.39676662D-04  0.00000000D+00
  0.12795294D-04 -0.00000000D+00 -0.14724137D-03  0.12953305D-04 -0.00000000D+00
 -0.10149128D-03 -0.10633098D-03 -0.00000000D+00 -0.93804705D-04 -0.00000000D+00
 -0.14072553D-04 -0.00000000D+00 -0.48118593D-04 -0.14118054D-04 -0.00000000D+00
 -0.63077620D-04  0.24400200D-04 -0.00000000D+00 -0.65608365D-04  0.00000000D+00
 -0.56941443D-02 -0.10614132D-01 -0.17993563D-01 -0.27247557D-01 -0.34073166D-01
 -0.29333822D-01 -0.11276992D-01  0.48865052D-04 -0.12123320D+00 -0.22765447D+00
 -0.38765630D+00 -0.60726130D+00 -0.81380159D+00 -0.87535333D+00 -0.52556099D+00
  0.34563102D+00  0.19324119D+00  0.11125011D+00  0.47722069D-02 -0.84649620D-01
 -0.82785480D-01 -0.54699867D-01  0.00000000D+00  0.00000000D+00  0.00000000D+00
  0.80230833D-02  0.78464002D-02  0.51844484D-02 -0.17127125D-01  0.12724697D-07
  0.22104199D-02 -0.17428206D-02  0.27383292D-08  0.11030483D-02  0.13763173D-03
  0.00000000D+00  0.33545241D-04 -0.11597311D-01  0.29301204D-01  0.29512552D-01
 -0.00000000D+00 -0.36108997D-03 -0.00000000D+00 -0.69369768D-02 -0.10601864D-02
 -0.78732252D-03 -0.00000000D+00 -0.57389014D-04 -0.00000000D+00 -0.70195631D-03
 -0.56824844D-03 -0.36808468D-03  0.00000000D+00  0.86902438D-04 -0.00000000D+00
 -0.13471980D-02  0.00000000D+00  0.10853719D-03 -0.26716548D-02  0.00000000D+00
  0.85406408D-04 -0.28128600D-02  0.00000000D+00  0.29365570D-03  0.00000000D+00
  0.13261157D-02  0.00000000D+00  0.11964161D-03 -0.31847593D-03  0.00000000D+00
 -0.32008351D-04 -0.23060019D-03  0.00000000D+00 -0.17667464D-04 -0.00000000D+00
  0.92124084D-03  0.17172328D-02  0.29111318D-02  0.44083116D-02  0.55126091D-02
  0.47458429D-02  0.18244753D-02 -0.79057501D-05  0.46839948D-01  0.87957126D-01
  0.14977582D+00  0.23462293D+00  0.31442233D+00  0.33820361D+00  0.20305700D+00
 -0.13353883D+00 -0.74614000D-01 -0.43362115D-01 -0.22954255D-02 -0.11709415D+00
 -0.11451552D+00 -0.75665249D-01 -0.00000000D+00 -0.00000000D+00 -0.00000000D+00
 -0.19754483D-02 -0.19319453D-02 -0.12765180D-02 -0.23884779D-01 -0.00000000D+00
 -0.52775683D-03 -0.34879468D-02 -0.00000000D+00 -0.24482032D-03  0.10950038D-03
 -0.00000000D+00 -0.37601013D-05  0.32867666D-01 -0.19265663D-01 -0.19273442D-01
 -0.00000000D+00  0.47862040D-03  0.00000000D+00  0.12087482D-01 -0.16358070D-02
 -0.17166889D-02 -0.00000000D+00  0.13101080D-03  0.00000000D+00  0.16217337D-02
  0.35359649D-03  0.32961815D-03 -0.00000000D+00  0.72032370D-04  0.00000000D+00
 -0.57088654D-02 -0.00000000D+00 -0.71806425D-04 -0.76218102D-02 -0.00000000D+00
  0.11928428D-03 -0.76892812D-02 -0.00000000D+00 -0.77719831D-04  0.00000000D+00
 -0.21531504D-02 -0.00000000D+00 -0.24771110D-04 -0.48141451D-03 -0.00000000D+00
  0.12255808D-05 -0.43722993D-03 -0.00000000D+00 -0.11587309D-04 -0.00000000D+00
  0.00000000D+00
MO    7     MO 0.0        OCC NO =    1.0000000  ORB. ENERGY =   -0.428879
 -0.31005295D-04 -0.57795212D-04 -0.97977094D-04 -0.14836620D-03 -0.18553245D-03
 -0.15972616D-03 -0.61404565D-04  0.26607603D-06  0.31212207D-03  0.58610996D-03
  0.99804419D-03  0.15634303D-02  0.20951805D-02  0.22536492D-02  0.13530880D-02
 -0.88984760D-03 -0.20085937D-03 -0.50018717D-03 -0.30460156D-03  0.55463525D-02
  0.54242116D-02  0.35840059D-02 -0.00000000D+00 -0.00000000D+00 -0.00000000D+00
 -0.30170717D-01 -0.29506302D-01 -0.19496061D-01  0.12769361D-02 -0.00000000D+00
 -0.64917589D-02  0.23524712D-03 -0.00000000D+00 -0.68982620D-03 -0.40197013D-04
  0.00000000D+00 -0.11887495D-04  0.39899940D-03  0.39528945D-03  0.78519348D-03
  0.00000000D+00  0.12561454D-03 -0.00000000D+00  0.37536773D-03  0.36319290D-03
  0.47659527D-03 -0.00000000D+00 -0.19219251D-03 -0.00000000D+00  0.33271854D-04
  0.41620363D-04  0.55402180D-05  0.00000000D+00  0.89597369D-04 -0.00000000D+00
 -0.38194907D-06 -0.00000000D+00 -0.12878049D-02 -0.54090725D-05 -0.00000000D+00
 -0.12513462D-02  0.15387388D-03 -0.00000000D+00 -0.12143368D-02  0.00000000D+00
  0.27404820D-05 -0.00000000D+00 -0.39379659D-03  0.42974911D-05 -0.00000000D+00
 -0.39072153D-03 -0.46635737D-04  0.00000000D+00 -0.40234067D-03 -0.00000000D+00
 -0.88489697D-04 -0.16494863D-03 -0.27962848D-03 -0.42343993D-03 -0.52951312D-03
 -0.45586147D-03 -0.17524979D-03  0.75938603D-06  0.54346253D-03  0.10205264D-02
  0.17377804D-02  0.27222227D-02  0.36480987D-02  0.39240220D-02  0.23559777D-02