 Molden2AIM, Version 3.1.0 (02/25/2015)           Time: Wed Apr 23 15:22:44 2025
GAUSSIAN            165 MOL ORBITALS    226 PRIMITIVES        4 NUCLEI
  F    1    (CENTRE  1)   0.00000000  0.00000000  7.55890395  CHARGE =  9.0
  F    2    (CENTRE  2)  -1.79523969  0.00000000  0.00000000  CHARGE =  9.0
  F    3    (CENTRE  3)   1.79523969  0.00000000  0.00000000  CHARGE =  9.0
  H    4    (CENTRE  4)   0.00000000  0.00000000  0.00000000  CHARGE =  1.0
CENTRE ASSIGNMENTS    1  1  1  1  1  1  1  1  1  1  1  1  1  1  1  1  1  1  1  1
CENTRE ASSIGNMENTS    1  1  1  1  1  1  1  1  1  1  1  1  1  1  1  1  1  1  1  1
CENTRE ASSIGNMENTS    1  1  1  1  1  1  1  1  1  1  1  1  1  1  1  1  1  1  1  1
CENTRE ASSIGNMENTS    1  1  1  1  1  1  1  1  1  1  1  1  1  1  1  2  2  2  2  2
CENTRE ASSIGNMENTS    2  2  2  2  2  2  2  2  2  2  2  2  2  2  2  2  2  2  2  2
CENTRE ASSIGNMENTS    2  2  2  2  2  2  2  2  2  2  2  2  2  2  2  2  2  2  2  2
CENTRE ASSIGNMENTS    2  2  2  2  2  2  2  2  2  2  2  2  2  2  2  2  2  2  2  2
CENTRE ASSIGNMENTS    2  2  2  2  2  2  2  2  2  2  3  3  3  3  3  3  3  3  3  3
CENTRE ASSIGNMENTS    3  3  3  3  3  3  3  3  3  3  3  3  3  3  3  3  3  3  3  3
CENTRE ASSIGNMENTS    3  3  3  3  3  3  3  3  3  3  3  3  3  3  3  3  3  3  3  3
CENTRE ASSIGNMENTS    3  3  3  3  3  3  3  3  3  3  3  3  3  3  3  3  3  3  3  3
CENTRE ASSIGNMENTS    3  3  3  3  3  4
TYPE ASSIGNMENTS      1  1  1  1  1  1  1  1  1  1  1  1  1  1  1  1  1  1  1  2
TYPE ASSIGNMENTS      2  2  3  3  3  4  4  4  2  3  4  2  3  4  2  3  4  5  6  7
TYPE ASSIGNMENTS      8  9 10  5  6  7  8  9 10  5  6  7  8  9 10 11 12 13 17 14
TYPE ASSIGNMENTS     15 18 19 16 20 11 12 13 17 14 15 18 19 16 20  1  1  1  1  1
TYPE ASSIGNMENTS      1  1  1  1  1  1  1  1  1  1  1  1  1  1  2  2  2  3  3  3
TYPE ASSIGNMENTS      4  4  4  2  3  4  2  3  4  2  3  4  5  6  7  8  9 10  5  6
TYPE ASSIGNMENTS      7  8  9 10  5  6  7  8  9 10 11 12 13 17 14 15 18 19 16 20
TYPE ASSIGNMENTS     11 12 13 17 14 15 18 19 16 20  1  1  1  1  1  1  1  1  1  1
TYPE ASSIGNMENTS      1  1  1  1  1  1  1  1  1  2  2  2  3  3  3  4  4  4  2  3
TYPE ASSIGNMENTS      4  2  3  4  2  3  4  5  6  7  8  9 10  5  6  7  8  9 10  5
TYPE ASSIGNMENTS      6  7  8  9 10 11 12 13 17 14 15 18 19 16 20 11 12 13 17 14
TYPE ASSIGNMENTS     15 18 19 16 20  1
EXPONENTS  0.1950000D+05 0.2923000D+04 0.6645000D+03 0.1875000D+03 0.6062000D+02
EXPONENTS  0.2142000D+02 0.7950000D+01 0.8815000D+00 0.1950000D+05 0.2923000D+04
EXPONENTS  0.6645000D+03 0.1875000D+03 0.6062000D+02 0.2142000D+02 0.7950000D+01
EXPONENTS  0.8815000D+00 0.2257000D+01 0.3041000D+00 0.9158000D-01 0.4388000D+02
EXPONENTS  0.9926000D+01 0.2930000D+01 0.4388000D+02 0.9926000D+01 0.2930000D+01
EXPONENTS  0.4388000D+02 0.9926000D+01 0.2930000D+01 0.9132000D+00 0.9132000D+00
EXPONENTS  0.9132000D+00 0.2672000D+00 0.2672000D+00 0.2672000D+00 0.7361000D-01
EXPONENTS  0.7361000D-01 0.7361000D-01 0.3107000D+01 0.3107000D+01 0.3107000D+01
EXPONENTS  0.3107000D+01 0.3107000D+01 0.3107000D+01 0.8550000D+00 0.8550000D+00
EXPONENTS  0.8550000D+00 0.8550000D+00 0.8550000D+00 0.8550000D+00 0.2920000D+00
EXPONENTS  0.2920000D+00 0.2920000D+00 0.2920000D+00 0.2920000D+00 0.2920000D+00
EXPONENTS  0.1917000D+01 0.1917000D+01 0.1917000D+01 0.1917000D+01 0.1917000D+01
EXPONENTS  0.1917000D+01 0.1917000D+01 0.1917000D+01 0.1917000D+01 0.1917000D+01
EXPONENTS  0.7240000D+00 0.7240000D+00 0.7240000D+00 0.7240000D+00 0.7240000D+00
EXPONENTS  0.7240000D+00 0.7240000D+00 0.7240000D+00 0.7240000D+00 0.7240000D+00
EXPONENTS  0.1950000D+05 0.2923000D+04 0.6645000D+03 0.1875000D+03 0.6062000D+02
EXPONENTS  0.2142000D+02 0.7950000D+01 0.8815000D+00 0.1950000D+05 0.2923000D+04
EXPONENTS  0.6645000D+03 0.1875000D+03 0.6062000D+02 0.2142000D+02 0.7950000D+01
EXPONENTS  0.8815000D+00 0.2257000D+01 0.3041000D+00 0.9158000D-01 0.4388000D+02
EXPONENTS  0.9926000D+01 0.2930000D+01 0.4388000D+02 0.9926000D+01 0.2930000D+01
EXPONENTS  0.4388000D+02 0.9926000D+01 0.2930000D+01 0.9132000D+00 0.9132000D+00
EXPONENTS  0.9132000D+00 0.2672000D+00 0.2672000D+00 0.2672000D+00 0.7361000D-01
EXPONENTS  0.7361000D-01 0.7361000D-01 0.3107000D+01 0.3107000D+01 0.3107000D+01
EXPONENTS  0.3107000D+01 0.3107000D+01 0.3107000D+01 0.8550000D+00 0.8550000D+00
EXPONENTS  0.8550000D+00 0.8550000D+00 0.8550000D+00 0.8550000D+00 0.2920000D+00
EXPONENTS  0.2920000D+00 0.2920000D+00 0.2920000D+00 0.2920000D+00 0.2920000D+00
EXPONENTS  0.1917000D+01 0.1917000D+01 0.1917000D+01 0.1917000D+01 0.1917000D+01
EXPONENTS  0.1917000D+01 0.1917000D+01 0.1917000D+01 0.1917000D+01 0.1917000D+01
EXPONENTS  0.7240000D+00 0.7240000D+00 0.7240000D+00 0.7240000D+00 0.7240000D+00
EXPONENTS  0.7240000D+00 0.7240000D+00 0.7240000D+00 0.7240000D+00 0.7240000D+00
EXPONENTS  0.1950000D+05 0.2923000D+04 0.6645000D+03 0.1875000D+03 0.6062000D+02
EXPONENTS  0.2142000D+02 0.7950000D+01 0.8815000D+00 0.1950000D+05 0.2923000D+04
EXPONENTS  0.6645000D+03 0.1875000D+03 0.6062000D+02 0.2142000D+02 0.7950000D+01
EXPONENTS  0.8815000D+00 0.2257000D+01 0.3041000D+00 0.9158000D-01 0.4388000D+02
EXPONENTS  0.9926000D+01 0.2930000D+01 0.4388000D+02 0.9926000D+01 0.2930000D+01
EXPONENTS  0.4388000D+02 0.9926000D+01 0.2930000D+01 0.9132000D+00 0.9132000D+00
EXPONENTS  0.9132000D+00 0.2672000D+00 0.2672000D+00 0.2672000D+00 0.7361000D-01
EXPONENTS  0.7361000D-01 0.7361000D-01 0.3107000D+01 0.3107000D+01 0.3107000D+01
EXPONENTS  0.3107000D+01 0.3107000D+01 0.3107000D+01 0.8550000D+00 0.8550000D+00
EXPONENTS  0.8550000D+00 0.8550000D+00 0.8550000D+00 0.8550000D+00 0.2920000D+00
EXPONENTS  0.2920000D+00 0.2920000D+00 0.2920000D+00 0.2920000D+00 0.2920000D+00
EXPONENTS  0.1917000D+01 0.1917000D+01 0.1917000D+01 0.1917000D+01 0.1917000D+01
EXPONENTS  0.1917000D+01 0.1917000D+01 0.1917000D+01 0.1917000D+01 0.1917000D+01
EXPONENTS  0.7240000D+00 0.7240000D+00 0.7240000D+00 0.7240000D+00 0.7240000D+00
EXPONENTS  0.7240000D+00 0.7240000D+00 0.7240000D+00 0.7240000D+00 0.7240000D+00
EXPONENTS  0.1000000D+01
MO    1     MO 0.0        OCC NO =    1.0000000  ORB. ENERGY =  -26.125800
 -0.73359651D-05 -0.13674557D-04 -0.23181736D-04 -0.35103980D-04 -0.43897650D-04
 -0.37791787D-04 -0.14528543D-04  0.62954554D-07  0.47087786D-05  0.88422522D-05
  0.15056830D-04  0.23586436D-04  0.31608599D-04  0.33999310D-04  0.20413141D-04
 -0.13424540D-04 -0.51523939D-04  0.48544831D-04  0.16176474D-04  0.58688705D-05
  0.57396272D-05  0.37924144D-05  0.00000000D+00  0.00000000D+00  0.00000000D+00
 -0.10658409D-04 -0.10423691D-04 -0.68873732D-05 -0.36519882D-05 -0.00000000D+00
  0.91108834D-05 -0.33462383D-05 -0.00000000D+00  0.44908599D-05  0.16652658D-05
  0.00000000D+00 -0.36693780D-05 -0.74199049D-04 -0.76712243D-04 -0.18430086D-04
  0.00000000D+00 -0.64672831D-04 -0.00000000D+00 -0.53954654D-04 -0.52928614D-04
 -0.77265767D-04 -0.00000000D+00  0.26223832D-04  0.00000000D+00 -0.14522549D-04
 -0.14856642D-04 -0.73099568D-05  0.00000000D+00 -0.75259674D-05 -0.00000000D+00
  0.19479402D-04  0.00000000D+00 -0.12795294D-04  0.18789410D-04  0.00000000D+00
 -0.36013035D-04 -0.23771450D-04  0.00000000D+00 -0.39856324D-04  0.00000000D+00
  0.14948084D-06  0.00000000D+00 -0.51677660D-05  0.31833268D-06  0.00000000D+00
  0.58891545D-06  0.10664145D-04  0.00000000D+00  0.15598301D-05 -0.00000000D+00
 -0.14387898D-03 -0.26819666D-03 -0.45465927D-03 -0.68848813D-03 -0.86095682D-03
 -0.74120362D-03 -0.28494573D-03  0.12347165D-05  0.60042795D-04  0.11274973D-03
  0.19199335D-03  0.30075645D-03  0.40304903D-03  0.43353357D-03  0.26029299D-03
 -0.17117962D-03 -0.49391326D-03  0.46535385D-03  0.16493146D-03  0.48515996D-03
  0.47447585D-03  0.31350625D-03  0.00000000D+00  0.00000000D+00  0.00000000D+00
 -0.52415085D-04 -0.51260808D-04 -0.33870183D-04 -0.46204649D-03 -0.00000000D+00
  0.39077546D-04 -0.13187246D-03 -0.00000000D+00  0.10887597D-04  0.22863930D-04
  0.00000000D+00 -0.12597432D-05 -0.55733060D-03 -0.38607441D-03 -0.40941120D-03
 -0.00000000D+00  0.82913886D-06 -0.00000000D+00 -0.49945593D-03 -0.59941969D-03
 -0.59033548D-03  0.00000000D+00 -0.58515989D-06  0.00000000D+00 -0.12363544D-03
 -0.10735079D-03 -0.10972190D-03 -0.00000000D+00  0.32405308D-06 -0.00000000D+00
  0.98937540D-03  0.00000000D+00 -0.89630715D-04  0.10944831D-02  0.00000000D+00
 -0.89249696D-04  0.10923480D-02  0.00000000D+00 -0.96793929D-04  0.00000000D+00
  0.19146360D-03  0.00000000D+00 -0.15638543D-04  0.93175975D-04  0.00000000D+00
 -0.16075800D-04  0.93860390D-04  0.00000000D+00 -0.13895221D-04 -0.00000000D+00
  0.59296765D+00  0.11053174D+01  0.18737847D+01  0.28374623D+01  0.35482566D+01
  0.30547184D+01  0.11743453D+01 -0.50886303D-02  0.23309041D-02  0.43770250D-02
  0.74533187D-02  0.11675580D-01  0.15646650D-01  0.16830082D-01  0.10104759D-01
 -0.66453148D-02  0.66494990D-01 -0.53209694D-02 -0.31081871D-03  0.77307191D-04
  0.75604744D-04  0.49955251D-04 -0.00000000D+00 -0.00000000D+00 -0.00000000D+00
  0.29897511D-03  0.29239112D-03  0.19319518D-03 -0.88810754D-03  0.00000000D+00
 -0.85675388D-04 -0.15354907D-03  0.00000000D+00  0.93815158D-05  0.25710786D-04
 -0.00000000D+00 -0.28239017D-05  0.38259423D-01  0.28190971D-01  0.28155667D-01
 -0.00000000D+00  0.10405693D-03  0.00000000D+00  0.10289197D-01  0.10677979D-01
  0.10690254D-01  0.00000000D+00 -0.10034408D-04 -0.00000000D+00  0.68626730D-03
  0.63983791D-03  0.63664779D-03 -0.00000000D+00  0.23345048D-05  0.00000000D+00
  0.20863331D-02 -0.00000000D+00  0.12865318D-03  0.20091857D-02 -0.00000000D+00
  0.13437275D-03  0.20080470D-02 -0.00000000D+00  0.11885725D-03  0.00000000D+00
  0.26465226D-03 -0.00000000D+00  0.64063215D-05  0.24358816D-03 -0.00000000D+00
  0.45999072D-05  0.24299925D-03 -0.00000000D+00  0.85313157D-05 -0.00000000D+00
  0.00000000D+00
MO    2     MO 0.0        OCC NO =    1.0000000  ORB. ENERGY =  -25.973300
 -0.94616236D-05 -0.17636876D-04 -0.29898841D-04 -0.45275657D-04 -0.56617368D-04
 -0.48742280D-04 -0.18738312D-04  0.81196173D-07  0.44928226D-05  0.84367251D-05
  0.14366288D-04  0.22504705D-04  0.30158952D-04  0.32440019D-04  0.19476945D-04
 -0.12808859D-04 -0.48938555D-04  0.45252667D-04  0.16016299D-04 -0.33729141D-05
 -0.32986363D-05 -0.21795485D-05 -0.00000000D+00 -0.00000000D+00 -0.00000000D+00
 -0.48569963D-05 -0.47500363D-05 -0.31385498D-05  0.16796601D-05  0.00000000D+00
  0.47463122D-05  0.29929938D-05  0.00000000D+00  0.37323427D-05 -0.16149854D-05
  0.00000000D+00 -0.36491565D-05 -0.71805531D-04 -0.73720345D-04 -0.14002079D-04
 -0.00000000D+00  0.64672831D-04 -0.00000000D+00 -0.50175826D-04 -0.49349989D-04
 -0.74287750D-04  0.00000000D+00 -0.26245505D-04  0.00000000D+00 -0.14115910D-04
 -0.14396549D-04 -0.66742254D-05 -0.00000000D+00  0.75127407D-05 -0.00000000D+00
 -0.15086988D-04 -0.00000000D+00 -0.26099853D-05 -0.14376745D-04 -0.00000000D+00
 -0.26760674D-04  0.28326459D-04 -0.00000000D+00 -0.30461619D-04 -0.00000000D+00
  0.49826945D-06 -0.00000000D+00 -0.37726116D-05  0.31833268D-06 -0.00000000D+00
  0.22124121D-05 -0.10027479D-04 -0.00000000D+00  0.31196602D-05  0.00000000D+00
  0.59313879D+00  0.11056364D+01  0.18743255D+01  0.28382812D+01  0.35492807D+01
  0.30556000D+01  0.11746842D+01 -0.50900989D-02  0.23835785D-02  0.44759383D-02
  0.76217511D-02  0.11939428D-01  0.16000238D-01  0.17210413D-01  0.10333110D-01
 -0.67954876D-02  0.65517938D-01 -0.53167228D-02 -0.31521581D-03  0.76227858D-04
  0.74549181D-04  0.49257796D-04 -0.00000000D+00 -0.00000000D+00 -0.00000000D+00
  0.66817428D-03  0.65345985D-03  0.43176855D-03  0.67320012D-03  0.00000000D+00
 -0.23330733D-03  0.12736517D-03  0.00000000D+00  0.13499963D-05 -0.26919702D-04
 -0.00000000D+00 -0.24845088D-05  0.36062892D-01  0.31935630D-01  0.31891589D-01
  0.00000000D+00  0.32750985D-04  0.00000000D+00  0.10509696D-01  0.10645871D-01
  0.10657258D-01 -0.00000000D+00  0.63934136D-05 -0.00000000D+00  0.66996547D-03
  0.64599858D-03  0.64293065D-03  0.00000000D+00 -0.22187716D-05  0.00000000D+00
 -0.15649726D-02 -0.00000000D+00  0.39690874D-03 -0.15388811D-02 -0.00000000D+00
  0.40098309D-03 -0.15388811D-02 -0.00000000D+00  0.38660634D-03 -0.00000000D+00
 -0.20322987D-03 -0.00000000D+00  0.37469863D-04 -0.18286621D-03 -0.00000000D+00
  0.35239427D-04 -0.18235687D-03 -0.00000000D+00  0.39473252D-04  0.00000000D+00
 -0.12558488D-04 -0.23409566D-04 -0.39684969D-04 -0.60094739D-04 -0.75148683D-04
 -0.64696016D-04 -0.24871510D-04  0.10777233D-06  0.53808241D-04  0.10104235D-03
  0.17205769D-03  0.26952735D-03  0.36119836D-03  0.38851754D-03  0.23326542D-03
 -0.15340515D-03 -0.44505344D-03  0.42556769D-03  0.16706712D-03 -0.33439070D-03
 -0.32702680D-03 -0.21608044D-03  0.00000000D+00  0.00000000D+00  0.00000000D+00
 -0.57339540D-04 -0.56076817D-04 -0.37052324D-04  0.33292899D-03 -0.00000000D+00
  0.42882231D-04  0.11300811D-03 -0.00000000D+00  0.11810414D-04 -0.23154682D-04
  0.00000000D+00 -0.13838047D-05 -0.52908709D-03 -0.39349431D-03 -0.41707046D-03
  0.00000000D+00 -0.26947013D-05 -0.00000000D+00 -0.45123208D-03 -0.55238454D-03
 -0.54322526D-03 -0.00000000D+00  0.99693907D-06  0.00000000D+00 -0.11640185D-03
 -0.99874743D-04 -0.10226303D-03  0.00000000D+00 -0.54229290D-06 -0.00000000D+00
 -0.79878282D-03  0.00000000D+00 -0.98606518D-04 -0.75257280D-03  0.00000000D+00
 -0.95370489D-04 -0.75057998D-03  0.00000000D+00 -0.10576160D-03 -0.00000000D+00
 -0.14493947D-03  0.00000000D+00 -0.16862862D-04 -0.85870240D-04  0.00000000D+00
 -0.18097213D-04 -0.86506905D-04  0.00000000D+00 -0.15136719D-04  0.00000000D+00
  0.00000000D+00
MO    3     MO 0.0        OCC NO =    1.0000000  ORB. ENERGY =  -25.932900
  0.59317009D+00  0.11056947D+01  0.18744244D+01  0.28384310D+01  0.35494679D+01
  0.30557613D+01  0.11747462D+01 -0.50903675D-02  0.24901786D-02  0.46761144D-02
  0.79626164D-02  0.12473391D-01  0.16715812D-01  0.17980110D-01  0.10795234D-01
 -0.70994002D-02  0.64378519D-01 -0.48323632D-02 -0.15655134D-03 -0.17383999D-03
 -0.17001172D-03 -0.11233393D-03 -0.00000000D+00 -0.00000000D+00 -0.00000000D+00
 -0.93605112D-03 -0.91543755D-03 -0.60486829D-03  0.70914739D-04  0.12724697D-07
  0.33170741D-03  0.37980626D-05  0.00000000D+00 -0.31928918D-05 -0.14646906D-06
 -0.00000000D+00  0.40033056D-05  0.33972513D-01  0.33973949D-01  0.33918061D-01
 -0.00000000D+00 -0.68403956D-05 -0.00000000D+00  0.10088644D-01  0.10087205D-01
  0.10105424D-01  0.00000000D+00 -0.47679695D-06  0.00000000D+00  0.54295664D-03
  0.54331173D-03  0.53845688D-03 -0.00000000D+00  0.79359937D-07 -0.00000000D+00
 -0.12999000D-03 -0.00000000D+00 -0.56725802D-03 -0.12996008D-03 -0.00000000D+00
 -0.55599572D-03 -0.13052946D-03 -0.00000000D+00 -0.55343352D-03 -0.00000000D+00
 -0.14798603D-04 -0.00000000D+00 -0.51136682D-04 -0.14802469D-04 -0.00000000D+00
 -0.53448056D-04 -0.14897969D-04 -0.00000000D+00 -0.54100638D-04  0.00000000D+00
 -0.33106520D-05 -0.61711988D-05 -0.10461699D-04 -0.15842096D-04 -0.19810596D-04
 -0.17055078D-04 -0.65565947D-05  0.28410798D-07  0.43425924D-05  0.81546194D-05
  0.13885910D-04  0.21752197D-04  0.29150502D-04  0.31355296D-04  0.18825678D-04
 -0.12380558D-04 -0.46746885D-04  0.45162191D-04  0.12602795D-04 -0.12277407D-04
 -0.12007036D-04 -0.79335565D-05  0.00000000D+00  0.00000000D+00  0.00000000D+00
  0.16932029D-04  0.16559154D-04  0.10941333D-04  0.99634381D-05 -0.00000000D+00
 -0.14620677D-04  0.24617579D-05 -0.00000000D+00 -0.52137788D-05  0.11750317D-06
  0.00000000D+00  0.26883631D-05 -0.64146275D-04 -0.71925207D-04 -0.17472679D-04
  0.00000000D+00  0.49748331D-05  0.00000000D+00 -0.50551206D-04 -0.47473088D-04
 -0.70096004D-04 -0.00000000D+00 -0.25356929D-05 -0.00000000D+00 -0.12277444D-04
 -0.13779908D-04 -0.69701364D-05  0.00000000D+00  0.87626597D-06  0.00000000D+00
 -0.20052326D-04  0.00000000D+00  0.24826689D-04 -0.23913794D-04  0.00000000D+00
  0.46261804D-04 -0.24198482D-04  0.00000000D+00  0.52809629D-04  0.00000000D+00
 -0.38793836D-05  0.00000000D+00  0.67337558D-05 -0.24352450D-05  0.00000000D+00
  0.14802469D-05 -0.25944113D-05  0.00000000D+00 -0.19099961D-06 -0.00000000D+00
 -0.57417212D-05 -0.10702817D-04 -0.18143906D-04 -0.27475221D-04 -0.34357861D-04
 -0.29578918D-04 -0.11371216D-04  0.49273340D-07  0.43214663D-05  0.81149483D-05
  0.13818357D-04  0.21646375D-04  0.29008689D-04  0.31202756D-04  0.18734094D-04
 -0.12320328D-04 -0.47088103D-04  0.45194295D-04  0.12589744D-04  0.12682157D-04
  0.12402873D-04  0.81951023D-05  0.00000000D+00  0.00000000D+00  0.00000000D+00
  0.17336778D-04  0.16954991D-04  0.11202879D-04 -0.10383353D-04 -0.00000000D+00
 -0.14747924D-04 -0.24152063D-05 -0.00000000D+00 -0.52575920D-05 -0.89083796D-07
  0.00000000D+00  0.27304457D-05 -0.64624978D-04 -0.72403911D-04 -0.17472679D-04
 -0.00000000D+00 -0.51821179D-05  0.00000000D+00 -0.50588744D-04 -0.47560677D-04
 -0.70333745D-04  0.00000000D+00  0.25790380D-05 -0.00000000D+00 -0.12386263D-04
 -0.13808545D-04 -0.69434090D-05 -0.00000000D+00 -0.89610596D-06  0.00000000D+00
  0.20688908D-04  0.00000000D+00  0.25144980D-04  0.25052546D-04  0.00000000D+00
  0.46688836D-04  0.25194890D-04  0.00000000D+00  0.53379005D-04 -0.00000000D+00
  0.40359826D-05  0.00000000D+00  0.68120552D-05  0.24352450D-05  0.00000000D+00
  0.15279968D-05  0.26103280D-05  0.00000000D+00 -0.15916634D-06  0.00000000D+00
  0.00000000D+00
MO    4     MO 0.0        OCC NO =    1.0000000  ORB. ENERGY =   -1.398940
 -0.27120470D-04 -0.50553732D-04 -0.85701004D-04 -0.12977658D-03 -0.16228607D-03
 -0.13971319D-03 -0.53710849D-04  0.23273790D-06  0.50425713D-04  0.94690559D-04
  0.16124169D-03  0.25258416D-03  0.33849248D-03  0.36409430D-03  0.21860174D-03
 -0.14376170D-03 -0.24999478D-03  0.12376261D-03  0.10710952D-03  0.10186201D-04
  0.99618817D-05  0.65822364D-05  0.00000000D+00  0.00000000D+00  0.00000000D+00
  0.14618210D-03  0.14296290D-03  0.94461631D-04 -0.23795184D-04  0.00000000D+00
  0.55479681D-04 -0.26200334D-04  0.00000000D+00  0.11684451D-04  0.11756328D-04
 -0.00000000D+00 -0.26214683D-04 -0.19650780D-03 -0.21074923D-03 -0.66779144D-04
  0.00000000D+00 -0.13017480D-03  0.00000000D+00 -0.19980239D-03 -0.19043040D-03
 -0.29332212D-03  0.00000000D+00  0.83699537D-04 -0.00000000D+00 -0.67692988D-04
 -0.71545558D-04 -0.27634271D-04  0.00000000D+00 -0.32640081D-04 -0.00000000D+00
  0.76262497D-04 -0.00000000D+00  0.10185308D-05  0.76296391D-04 -0.00000000D+00
 -0.71599039D-04 -0.13380337D-04 -0.00000000D+00 -0.92096577D-04 -0.00000000D+00
  0.12755698D-04 -0.00000000D+00 -0.44274800D-05  0.12701474D-04 -0.00000000D+00
  0.19147711D-04  0.41717497D-04 -0.00000000D+00  0.25880447D-04 -0.00000000D+00
  0.90877398D-03  0.16939941D-02  0.28717364D-02  0.43486553D-02  0.54380087D-02
  0.46816189D-02  0.17997852D-02 -0.77987640D-05  0.20738996D-01  0.38944161D-01
  0.66315190D-01  0.10388235D+00  0.13921457D+00  0.14974405D+00  0.89906128D-01
 -0.59126052D-01 -0.34539399D-01 -0.15466346D-01  0.40261789D-03 -0.73272646D-01
 -0.71659047D-01 -0.47348162D-01  0.00000000D+00  0.00000000D+00  0.00000000D+00
 -0.15253667D-02 -0.14917753D-02 -0.98567900D-03 -0.16356721D-01  0.00000000D+00
 -0.36376093D-03 -0.98260014D-03  0.27383292D-08 -0.91252082D-04  0.11976305D-03
  0.00000000D+00 -0.12248202D-04 -0.12596246D-01 -0.39373366D-04 -0.15952796D-03
 -0.00000000D+00 -0.33580124D-03 -0.00000000D+00 -0.36214058D-02  0.18932928D-03
  0.18441180D-03  0.00000000D+00 -0.69894098D-04 -0.00000000D+00  0.10687161D-04
 -0.11839877D-03 -0.16415998D-03  0.00000000D+00 -0.26998912D-04  0.00000000D+00
 -0.27867004D-02  0.00000000D+00 -0.10802793D-03  0.32141278D-03  0.00000000D+00
 -0.25792735D-03  0.42247703D-03  0.00000000D+00 -0.15942529D-03 -0.00000000D+00
 -0.60435102D-03  0.00000000D+00 -0.64098806D-04 -0.67024945D-04  0.00000000D+00
 -0.26453445D-04 -0.13030948D-03  0.00000000D+00 -0.35541843D-04  0.00000000D+00
  0.34971541D-02  0.65188468D-02  0.11051048D-01  0.16734544D-01  0.20926605D-01
  0.18015858D-01  0.69259535D-02 -0.30011290D-04  0.13316914D+00  0.25006805D+00
  0.42582276D+00  0.66704884D+00  0.89392392D+00  0.96153570D+00  0.57730477D+00
 -0.37965991D+00 -0.21474022D+00 -0.11255212D+00 -0.32392707D-02  0.75473472D-01
  0.73811408D-01  0.48770318D-01  0.67458282D-07  0.65972726D-07  0.43590970D-07
 -0.60681423D-02 -0.59345106D-02 -0.39211821D-02  0.17139175D-01  0.25449395D-07
 -0.15118849D-02 -0.72364730D-03  0.54766584D-08 -0.43957851D-03  0.80834527D-04
  0.00000000D+00 -0.23031167D-04 -0.85848898D-01  0.20440881D-01  0.20249040D-01
  0.00000000D+00 -0.53583099D-03 -0.00000000D+00 -0.46614218D-02  0.15420358D-01
  0.15249660D-01  0.00000000D+00  0.88684232D-04  0.00000000D+00  0.27246666D-02
  0.24811929D-02  0.23848138D-02 -0.00000000D+00  0.14030837D-03  0.00000000D+00
 -0.20405629D-02  0.00000000D+00 -0.41186841D-03 -0.10280085D-02  0.00000000D+00
 -0.78460020D-03 -0.12351190D-02  0.00000000D+00 -0.48809762D-03 -0.00000000D+00
 -0.15133725D-02  0.71181351D-08 -0.20098766D-03 -0.91641611D-03  0.15916634D-07
 -0.21415831D-03 -0.73732215D-03  0.15916634D-07 -0.14043246D-03 -0.00000000D+00
  0.00000000D+00
MO    5     MO 0.0        OCC NO =    1.0000000  ORB. ENERGY =   -1.231260
 -0.51980902D-05 -0.96894653D-05 -0.16426026D-04 -0.24873844D-04 -0.31104829D-04
 -0.26778361D-04 -0.10294579D-04  0.44608098D-07 -0.16950194D-03 -0.31829463D-03
 -0.54200086D-03 -0.84904114D-03 -0.11378150D-02 -0.12238735D-02 -0.73481202D-03
  0.48324330D-03  0.33075849D-03  0.11971745D-03 -0.45202531D-04 -0.45601799D-04
 -0.44597563D-04 -0.29467495D-04 -0.00000000D+00 -0.00000000D+00 -0.00000000D+00
 -0.24615527D-03 -0.24073448D-03 -0.15906345D-03 -0.25207626D-04 -0.00000000D+00
 -0.36863449D-04 -0.18226319D-04 -0.00000000D+00  0.25255610D-04  0.12507256D-04
  0.00000000D+00  0.11199965D-04  0.12266778D-03  0.12829255D-03  0.59718267D-04
 -0.00000000D+00 -0.14116089D-03 -0.00000000D+00  0.54830541D-04  0.50588744D-04
  0.10967359D-03  0.00000000D+00  0.97765047D-04  0.00000000D+00  0.23147878D-04
  0.25070346D-04 -0.14604641D-05  0.00000000D+00 -0.39461729D-04  0.00000000D+00
  0.54746033D-04 -0.00000000D+00 -0.85683907D-04  0.55087133D-04 -0.00000000D+00
 -0.36013035D-04 -0.58788077D-04 -0.00000000D+00 -0.23771450D-04  0.00000000D+00
  0.11744923D-05 -0.00000000D+00 -0.29476197D-04  0.10664145D-05 -0.00000000D+00
 -0.45489740D-04  0.37849755D-04 -0.00000000D+00 -0.49516648D-04 -0.00000000D+00
 -0.50246658D-02 -0.93661946D-02 -0.15878003D-01 -0.24043975D-01 -0.30067076D-01
 -0.25884951D-01 -0.99511203D-02  0.43119833D-04 -0.12993939D+00 -0.24400316D+00
 -0.41549529D+00 -0.65087092D+00 -0.87224360D+00 -0.93821560D+00 -0.56330341D+00
  0.37045202D+00  0.20911883D+00  0.11459898D+00  0.43010413D-02  0.57186477D-01
  0.55927125D-01  0.36953416D-01 -0.67458282D-07 -0.65972726D-07 -0.43590970D-07
  0.91192804D-02  0.89184570D-02  0.58928016D-02  0.13797580D-01 -0.25449395D-07
  0.24916230D-02  0.58809727D-03 -0.10953317D-07  0.95107649D-03  0.13349453D-03
 -0.00000000D+00  0.29503679D-04  0.42213036D-01  0.41273819D-02  0.44381802D-02
  0.00000000D+00  0.79016933D-03  0.00000000D+00 -0.10279287D-02 -0.83695530D-02
 -0.80754050D-02  0.00000000D+00  0.22853745D-03  0.00000000D+00 -0.12807392D-02
 -0.14260544D-02 -0.12459267D-02 -0.00000000D+00  0.10970519D-03 -0.00000000D+00
 -0.16253843D-02 -0.63658178D-07  0.11814958D-03  0.84424234D-03 -0.00000000D+00
  0.40041371D-03  0.70559927D-03 -0.00000000D+00  0.28582678D-03  0.00000000D+00
 -0.14224881D-03 -0.14236270D-07  0.14572958D-03 -0.46180521D-03 -0.15916634D-07
  0.31005603D-04 -0.33905613D-03 -0.15916634D-07  0.18001713D-04 -0.00000000D+00
  0.28787402D-03  0.53660965D-03  0.90968527D-03  0.13775316D-02  0.17226081D-02
  0.14830051D-02  0.57012131D-03 -0.24704290D-05  0.26089926D-01  0.48992261D-01
  0.83425372D-01  0.13068535D+00  0.17513374D+00  0.18837996D+00  0.11310308D+00
 -0.74381343D-01 -0.41238942D-01 -0.24750057D-01 -0.16852673D-02 -0.10861505D+00
 -0.10622315D+00 -0.70186125D-01  0.00000000D+00  0.00000000D+00  0.00000000D+00
 -0.89557615D-03 -0.87585391D-03 -0.57871371D-03 -0.22272827D-01  0.00000000D+00
 -0.26996718D-03 -0.18677541D-02  0.00000000D+00 -0.14233561D-03  0.14339212D-03
  0.00000000D+00  0.14920170D-06 -0.94028146D-02  0.33457787D-02  0.33656449D-02
  0.00000000D+00 -0.32585157D-03 -0.00000000D+00  0.28438932D-02  0.33288845D-02
  0.32678602D-02  0.00000000D+00 -0.55785243D-04  0.00000000D+00  0.63072385D-03
  0.67109947D-03  0.66488916D-03  0.00000000D+00  0.33324560D-04  0.00000000D+00
 -0.75948662D-02  0.00000000D+00 -0.45197306D-05 -0.24113076D-02  0.00000000D+00
  0.62489022D-04 -0.24222681D-02  0.00000000D+00  0.22775042D-05 -0.00000000D+00
 -0.20989530D-02  0.00000000D+00  0.55521453D-05 -0.30259113D-03  0.00000000D+00
 -0.32517683D-04 -0.29455323D-03  0.00000000D+00  0.97568966D-05  0.00000000D+00
  0.00000000D+00
MO    6     MO 0.0        OCC NO =    1.0000000  ORB. ENERGY =   -1.186560
 -0.57626113D-02 -0.10741757D-01 -0.18209919D-01 -0.27575184D-01 -0.34482865D-01
 -0.29686535D-01 -0.11412588D-01  0.49452611D-04 -0.12930076D+00 -0.24280393D+00
 -0.41345322D+00 -0.64767203D+00 -0.86795671D+00 -0.93360447D+00 -0.56053490D+00
  0.36863133D+00  0.20723315D+00  0.11619414D+00  0.40646244D-02 -0.17686212D-02
 -0.17296729D-02 -0.11428680D-02 -0.40474969D-06 -0.39583636D-06 -0.26154582D-06
 -0.12852624D-01 -0.12569586D-01 -0.83052567D-02 -0.51409050D-03 -0.11452228D-06
 -0.33991739D-02 -0.23377664D-03 -0.30121621D-07 -0.13670506D-02 -0.43678386D-05
 -0.54652636D-09 -0.44095386D-04  0.17588286D-01  0.17589124D-01  0.17865456D-01
 -0.00000000D+00  0.86023156D-04 -0.00000000D+00 -0.31203608D-02 -0.31286567D-02
 -0.27524381D-02 -0.00000000D+00  0.10942490D-03 -0.00000000D+00 -0.38600352D-03
 -0.38392451D-03 -0.18832541D-03  0.00000000D+00  0.67743626D-04  0.33066640D-08
 -0.11649447D-04 -0.63658178D-07 -0.54274962D-03 -0.11529865D-04 -0.14234401D-06
 -0.67727281D-03  0.71172007D-04 -0.14234401D-06 -0.65606356D-03 -0.00000000D+00
  0.53955464D-05 -0.28472540D-07 -0.29696859D-03  0.55867385D-05 -0.31833268D-07
 -0.18347104D-03 -0.58175297D-04 -0.31833268D-07 -0.19206602D-03 -0.00000000D+00
  0.13230392D-04  0.24662023D-04  0.41808192D-04  0.63309925D-04  0.79169283D-04
  0.68157378D-04  0.26202185D-04 -0.11353835D-06  0.20131554D-03  0.37803493D-03
  0.64372829D-03  0.10083966D-02  0.13513700D-02  0.14535807D-02  0.87272792D-03
 -0.57394260D-03 -0.24771124D-03 -0.22086687D-03 -0.69212148D-04 -0.40609886D-04
 -0.39715581D-04 -0.26241764D-04  0.00000000D+00  0.00000000D+00  0.00000000D+00
  0.31530001D-03  0.30835652D-03  0.20374419D-03 -0.33516853D-04 -0.00000000D+00
  0.44740036D-04 -0.23273060D-04 -0.00000000D+00 -0.27687246D-04  0.21325458D-05
  0.00000000D+00 -0.15074836D-04  0.71446504D-04  0.12936963D-03  0.57444425D-05
 -0.00000000D+00 -0.37311249D-05 -0.00000000D+00  0.65090934D-04  0.80881930D-04
  0.17876858D-03 -0.00000000D+00  0.12461738D-04 -0.00000000D+00  0.37700974D-04
  0.40125535D-04 -0.33218399D-05  0.00000000D+00 -0.45731164D-05  0.00000000D+00
  0.52517997D-04  0.00000000D+00  0.11643081D-03  0.45977116D-04  0.00000000D+00
  0.18362378D-04  0.71599039D-04  0.00000000D+00  0.15515497D-04  0.00000000D+00
  0.21432705D-04  0.00000000D+00  0.30116829D-04  0.23970451D-04  0.00000000D+00
  0.65321865D-04  0.16489633D-04  0.00000000D+00  0.63077620D-04 -0.00000000D+00
  0.90401568D-05  0.16851244D-04  0.28567001D-04  0.43258859D-04  0.54095355D-04
  0.46571062D-04  0.17903616D-04 -0.77579301D-07  0.13802402D-04  0.25918466D-04
  0.44134678D-04  0.69136711D-04  0.92651327D-04  0.99658994D-04  0.59835129D-04
 -0.39350098D-04  0.62377300D-04 -0.67533148D-04 -0.65555416D-04  0.11953608D-03
  0.11690367D-03  0.77243198D-04  0.00000000D+00  0.00000000D+00  0.00000000D+00
  0.34997357D-03  0.34226650D-03  0.22614995D-03  0.45007255D-04 -0.00000000D+00
  0.60862228D-04  0.25376097D-04 -0.00000000D+00 -0.18968406D-04 -0.17188254D-05
  0.00000000D+00 -0.15188514D-04  0.11752172D-03  0.14121754D-03  0.24892584D-04
  0.00000000D+00  0.22801319D-05  0.00000000D+00  0.73612066D-04  0.84385479D-04
  0.17840572D-03 -0.00000000D+00 -0.12245012D-04 -0.00000000D+00  0.37710519D-04
  0.40877722D-04 -0.25009254D-06 -0.00000000D+00  0.39944502D-05  0.00000000D+00
 -0.41887081D-04  0.00000000D+00  0.95996532D-04 -0.40425700D-04  0.00000000D+00
  0.62631366D-05 -0.63627774D-04  0.00000000D+00  0.56937605D-06 -0.00000000D+00
 -0.17859401D-04  0.00000000D+00  0.23731862D-04 -0.23922701D-04  0.00000000D+00
  0.59193961D-04 -0.17349131D-04  0.00000000D+00  0.54769137D-04  0.00000000D+00
  0.00000000D+00
MO    7     MO 0.0        OCC NO =    1.0000000  ORB. ENERGY =   -0.567711
 -0.22863045D-04 -0.42617707D-04 -0.72247490D-04 -0.10940399D-03 -0.13681008D-03
 -0.11778073D-03 -0.45279214D-04  0.19620224D-06  0.34794728D-04  0.65338337D-04
  0.11125992D-03  0.17428801D-03  0.23356643D-03  0.25123219D-03  0.15083948D-03
 -0.99198386D-04 -0.23754032D-05 -0.11815309D-03  0.74983189D-04 -0.19009744D-03
 -0.18591114D-03 -0.12283935D-03  0.00000000D+00  0.00000000D+00  0.00000000D+00
 -0.91642076D-03 -0.89623949D-03 -0.59218332D-03 -0.23998779D-04 -0.00000000D+00
 -0.37663832D-03 -0.16375209D-05  0.00000000D+00  0.28229436D-04  0.38726858D-05
 -0.00000000D+00 -0.25788939D-04  0.10076710D-03  0.52896741D-04  0.30529318D-03
  0.00000000D+00 -0.37725818D-04  0.00000000D+00  0.75413891D-04  0.11487887D-03
 -0.15453153D-04  0.00000000D+00  0.30189916D-04 -0.00000000D+00 -0.36599421D-04
 -0.52275069D-04 -0.59678572D-05  0.00000000D+00 -0.12145377D-04  0.00000000D+00
 -0.32656645D-04 -0.00000000D+00  0.21497367D-03 -0.29180523D-04 -0.00000000D+00
  0.21579352D-03 -0.55798853D-04  0.00000000D+00  0.14903418D-03  0.00000000D+00
 -0.11353425D-04  0.00000000D+00  0.20998498D-05 -0.12462724D-04  0.00000000D+00
  0.34379929D-05 -0.38836587D-05 -0.00000000D+00  0.24368366D-04 -0.00000000D+00
 -0.61873154D-03 -0.11533424D-02 -0.19551989D-02 -0.29607474D-02 -0.37024250D-02
 -0.31874431D-02 -0.12253695D-02  0.53097265D-05  0.13358772D-01  0.25085408D-01
  0.42716123D-01  0.66914554D-01  0.89673374D-01  0.96455805D-01  0.57911939D-01