[Molden Format]
[Atoms] Angs
F       1       9     0.00000000     0.00000000     4.00000000
F       2       9    -0.95000000     0.00000000     0.00000000
F       3       9     0.95000000     0.00000000     0.00000000
E+       4       1     0.00000000     0.00000000     0.00000000
[GTO]
  1 0
s  8 1.00
   1.9500000000E+04   5.0700000000E-04
   2.9230000000E+03   3.9230000000E-03
   6.6450000000E+02   2.0200000000E-02
   1.8750000000E+02   7.9010000000E-02
   6.0620000000E+01   2.3043900000E-01
   2.1420000000E+01   4.3287200000E-01
   7.9500000000E+00   3.4996400000E-01
   8.8150000000E-01  -7.8920000000E-03
s  8 1.00
   1.9500000000E+04  -1.1700000000E-04
   2.9230000000E+03  -9.1200000000E-04
   6.6450000000E+02  -4.7170000000E-03
   1.8750000000E+02  -1.9086000000E-02
   6.0620000000E+01  -5.9655000000E-02
   2.1420000000E+01  -1.4001000000E-01
   7.9500000000E+00  -1.7678200000E-01
   8.8150000000E-01   6.0504300000E-01
s  1 1.00
   2.2570000000E+00   1.0000000000E+00
s  1 1.00
   3.0410000000E-01   1.0000000000E+00
s  1 1.00
   9.1580000000E-02   1.0000000000E+00
p  3 1.00
   4.3880000000E+01   1.6665000000E-02
   9.9260000000E+00   1.0447200000E-01
   2.9300000000E+00   3.1726000000E-01
p  1 1.00
   9.1320000000E-01   1.0000000000E+00
p  1 1.00
   2.6720000000E-01   1.0000000000E+00
p  1 1.00
   7.3610000000E-02   1.0000000000E+00
d  1 1.00
   3.1070000000E+00   1.0000000000E+00
d  1 1.00
   8.5500000000E-01   1.0000000000E+00
d  1 1.00
   2.9200000000E-01   1.0000000000E+00
f  1 1.00
   1.9170000000E+00   1.0000000000E+00
f  1 1.00
   7.2400000000E-01   1.0000000000E+00
 
  2 0
s  8 1.00
   1.9500000000E+04   5.0700000000E-04
   2.9230000000E+03   3.9230000000E-03
   6.6450000000E+02   2.0200000000E-02
   1.8750000000E+02   7.9010000000E-02
   6.0620000000E+01   2.3043900000E-01
   2.1420000000E+01   4.3287200000E-01
   7.9500000000E+00   3.4996400000E-01
   8.8150000000E-01  -7.8920000000E-03
s  8 1.00
   1.9500000000E+04  -1.1700000000E-04
   2.9230000000E+03  -9.1200000000E-04
   6.6450000000E+02  -4.7170000000E-03
   1.8750000000E+02  -1.9086000000E-02
   6.0620000000E+01  -5.9655000000E-02
   2.1420000000E+01  -1.4001000000E-01
   7.9500000000E+00  -1.7678200000E-01
   8.8150000000E-01   6.0504300000E-01
s  1 1.00
   2.2570000000E+00   1.0000000000E+00
s  1 1.00
   3.0410000000E-01   1.0000000000E+00
s  1 1.00
   9.1580000000E-02   1.0000000000E+00
p  3 1.00
   4.3880000000E+01   1.6665000000E-02
   9.9260000000E+00   1.0447200000E-01
   2.9300000000E+00   3.1726000000E-01
p  1 1.00
   9.1320000000E-01   1.0000000000E+00
p  1 1.00
   2.6720000000E-01   1.0000000000E+00
p  1 1.00
   7.3610000000E-02   1.0000000000E+00
d  1 1.00
   3.1070000000E+00   1.0000000000E+00
d  1 1.00
   8.5500000000E-01   1.0000000000E+00
d  1 1.00
   2.9200000000E-01   1.0000000000E+00
f  1 1.00
   1.9170000000E+00   1.0000000000E+00
f  1 1.00
   7.2400000000E-01   1.0000000000E+00
 
  3 0
s  8 1.00
   1.9500000000E+04   5.0700000000E-04
   2.9230000000E+03   3.9230000000E-03
   6.6450000000E+02   2.0200000000E-02
   1.8750000000E+02   7.9010000000E-02
   6.0620000000E+01   2.3043900000E-01
   2.1420000000E+01   4.3287200000E-01
   7.9500000000E+00   3.4996400000E-01
   8.8150000000E-01  -7.8920000000E-03
s  8 1.00
   1.9500000000E+04  -1.1700000000E-04
   2.9230000000E+03  -9.1200000000E-04
   6.6450000000E+02  -4.7170000000E-03
   1.8750000000E+02  -1.9086000000E-02
   6.0620000000E+01  -5.9655000000E-02
   2.1420000000E+01  -1.4001000000E-01
   7.9500000000E+00  -1.7678200000E-01
   8.8150000000E-01   6.0504300000E-01
s  1 1.00
   2.2570000000E+00   1.0000000000E+00
s  1 1.00
   3.0410000000E-01   1.0000000000E+00
s  1 1.00
   9.1580000000E-02   1.0000000000E+00
p  3 1.00
   4.3880000000E+01   1.6665000000E-02
   9.9260000000E+00   1.0447200000E-01
   2.9300000000E+00   3.1726000000E-01
p  1 1.00
   9.1320000000E-01   1.0000000000E+00
p  1 1.00
   2.6720000000E-01   1.0000000000E+00
p  1 1.00
   7.3610000000E-02   1.0000000000E+00
d  1 1.00
   3.1070000000E+00   1.0000000000E+00
d  1 1.00
   8.5500000000E-01   1.0000000000E+00
d  1 1.00
   2.9200000000E-01   1.0000000000E+00
f  1 1.00
   1.9170000000E+00   1.0000000000E+00
f  1 1.00
   7.2400000000E-01   1.0000000000E+00
 
  4 0
 s  1 1.00
   1.0000000000E+00   1.0000000000E+00
 
 
[MO]
Ene=    -2.60972E+01
Spin= Alpha
Occup=   1.0000000000
   1      -0.00001076
   2      -0.00001764
   3      -0.00003465
   4       0.00014452
   5       0.00012617
   6       0.00000091
   7      -0.00000000
   8      -0.00000052
   9      -0.00000285
  10       0.00000000
  11       0.00000283
  12      -0.00001332
  13       0.00000000
  14       0.00001147
  15       0.00003129
  16      -0.00000000
  17      -0.00006157
  18      -0.00000556
  19      -0.00000579
  20      -0.00000119
  21      -0.00000000
  22      -0.00000316
  23       0.00000000
  24      -0.00003776
  25      -0.00003680
  26      -0.00005522
  27       0.00000000
  28       0.00001223
  29      -0.00000000
  30      -0.00006844
  31      -0.00007046
  32      -0.00003293
  33      -0.00000000
  34      -0.00002281
  35       0.00000000
  36       0.00000306
  37      -0.00000000
  38      -0.00000011
  39       0.00000133
  40      -0.00000000
  41      -0.00000156
  42      -0.00000160
  43      -0.00000000
  44      -0.00000187
  45      -0.00000000
  46       0.00000066
  47      -0.00000000
  48      -0.00000426
  49       0.00000038
  50      -0.00000000
  51       0.00000145
  52       0.00000673
  53      -0.00000000
  54       0.00000214
  55       0.00000000
  56       0.00011012
  57      -0.00011720
  58      -0.00025459
  59       0.00112293
  60       0.00127642
  61       0.00003536
  62      -0.00000000
  63      -0.00000699
  64      -0.00006708
  65       0.00000000
  66       0.00002786
  67      -0.00013291
  68       0.00000000
  69       0.00003594
  70       0.00039742
  71      -0.00000000
  72      -0.00002016
  73      -0.00003229
  74      -0.00003791
  75      -0.00003969
  76       0.00000000
  77       0.00000004
  78       0.00000000
  79      -0.00026601
  80      -0.00033819
  81      -0.00033155
  82      -0.00000000
  83      -0.00000020
  84      -0.00000000
  85      -0.00040929
  86      -0.00040404
  87      -0.00041533
  88       0.00000000
  89       0.00000082
  90       0.00000000
  91       0.00007715
  92      -0.00000000
  93      -0.00001276
  94       0.00001535
  95      -0.00000000
  96      -0.00000567
  97       0.00001520
  98      -0.00000000
  99      -0.00000617
 100      -0.00000000
 101       0.00006812
 102      -0.00000000
 103      -0.00001990
 104       0.00003563
 105      -0.00000000
 106      -0.00000921
 107       0.00003606
 108      -0.00000000
 109      -0.00000791
 110       0.00000000
 111       0.97167896
 112      -0.01102330
 113       0.04797979
 114      -0.01773879
 115      -0.00250780
 116      -0.00035714
 117       0.00000000
 118       0.00003641
 119       0.00123625
 120      -0.00000000
 121      -0.00004927
 122       0.00019690
 123      -0.00000000
 124       0.00003692
 125       0.00040904
 126       0.00000000
 127      -0.00005033
 128       0.00225149
 129       0.00348270
 130       0.00347982
 131       0.00000000
 132      -0.00000837
 133      -0.00000000
 134       0.00833658
 135       0.00849340
 136       0.00850254
 137      -0.00000000
 138      -0.00000438
 139       0.00000000
 140       0.00312917
 141       0.00324713
 142       0.00323140
 143       0.00000000
 144       0.00000548
 145      -0.00000000
 146      -0.00047700
 147       0.00000000
 148       0.00001376
 149      -0.00019686
 150       0.00000000
 151       0.00000545
 152      -0.00019691
 153       0.00000000
 154       0.00000552
 155      -0.00000000
 156      -0.00040358
 157       0.00000000
 158       0.00000291
 159      -0.00018572
 160       0.00000000
 161       0.00000014
 162      -0.00018607
 163       0.00000000
 164       0.00000256
 165       0.00000000
 166   0.00000000E+00
Ene=    -2.59324E+01
Spin= Alpha
Occup=   1.0000000000
   1      -0.97110215
   2       0.01060698
   3      -0.04905625
   4       0.01655832
   5       0.00131977
   6       0.00003481
   7      -0.00000000
   8       0.00013736
   9      -0.00007669
  10       0.00000000
  11      -0.00025713
  12      -0.00001892
  13       0.00000000
  14       0.00001254
  15       0.00000365
  16      -0.00000000
  17      -0.00007347
  18      -0.00283855
  19      -0.00283881
  20      -0.00283433
  21      -0.00000000
  22       0.00000077
  23      -0.00000000
  24      -0.00806278
  25      -0.00806164
  26      -0.00807617
  27       0.00000000
  28       0.00000025
  29       0.00000000
  30      -0.00284434
  31      -0.00284618
  32      -0.00282076
  33      -0.00000000
  34      -0.00000031
  35      -0.00000000
  36       0.00002826
  37      -0.00000000
  38       0.00008771
  39       0.00001264
  40      -0.00000000
  41       0.00003845
  42       0.00001269
  43      -0.00000000
  44       0.00003826
  45      -0.00000000
  46       0.00002848
  47      -0.00000000
  48       0.00007054
  49       0.00001274
  50      -0.00000000
  51       0.00003300
  52       0.00001282
  53      -0.00000000
  54       0.00003341
  55       0.00000000
  56       0.00016609
  57       0.00001676
  58       0.00004371
  59      -0.00015774
  60      -0.00010678
  61       0.00000187
  62       0.00000000
  63      -0.00000246
  64      -0.00000789
  65      -0.00000000
  66       0.00001143
  67      -0.00000904
  68      -0.00000000
  69       0.00001902
  70      -0.00000231
  71       0.00000000
  72      -0.00004909
  73       0.00000579
  74       0.00000652
  75       0.00000196
  76       0.00000000
  77      -0.00000024
  78       0.00000000
  79       0.00004181
  80       0.00003934
  81       0.00005742
  82      -0.00000000
  83       0.00000117
  84      -0.00000000
  85       0.00006478
  86       0.00007274
  87       0.00003709
  88       0.00000000
  89      -0.00000264
  90       0.00000000
  91       0.00000319
  92       0.00000000
  93      -0.00000387
  94       0.00000169
  95       0.00000000
  96      -0.00000323
  97       0.00000171
  98       0.00000000
  99      -0.00000369
 100       0.00000000
 101       0.00000546
 102       0.00000000
 103      -0.00000943
 104       0.00000155
 105       0.00000000
 106      -0.00000092
 107       0.00000165
 108       0.00000000
 109       0.00000013
 110      -0.00000000
 111       0.00000925
 112       0.00001838
 113       0.00003583
 114      -0.00015460
 115      -0.00010585
 116      -0.00000191
 117       0.00000000
 118      -0.00000257
 119       0.00000823
 120      -0.00000000
 121       0.00001161
 122       0.00000880
 123      -0.00000000
 124       0.00001924
 125       0.00000144
 126       0.00000000
 127      -0.00005010
 128       0.00000540
 129       0.00000605
 130       0.00000145
 131      -0.00000000
 132       0.00000025
 133       0.00000000
 134       0.00004036
 135       0.00003794
 136       0.00005617
 137       0.00000000
 138      -0.00000119
 139      -0.00000000
 140       0.00006491
 141       0.00007227
 142       0.00003626
 143      -0.00000000
 144       0.00000271
 145       0.00000000
 146      -0.00000328
 147       0.00000000
 148      -0.00000396
 149      -0.00000178
 150       0.00000000
 151      -0.00000328
 152      -0.00000179
 153       0.00000000
 154      -0.00000375
 155      -0.00000000
 156      -0.00000573
 157       0.00000000
 158      -0.00000959
 159      -0.00000154
 160       0.00000000
 161      -0.00000096
 162      -0.00000164
 163       0.00000000
 164       0.00000009
 165       0.00000000
 166   0.00000000E+00
Ene=    -2.59311E+01
Spin= Alpha
Occup=   1.0000000000
   1       0.00014560
   2      -0.00002006
   3      -0.00002752
   4       0.00014559
   5       0.00012785
   6      -0.00000075
   7       0.00000000
   8      -0.00000073
   9       0.00000226
  10      -0.00000000
  11       0.00000380
  12       0.00001265
  13      -0.00000000
  14       0.00001305
  15      -0.00003067
  16       0.00000000
  17      -0.00006288
  18      -0.00000519
  19      -0.00000540
  20      -0.00000073
  21      -0.00000000
  22       0.00000316
  23       0.00000000
  24      -0.00003724
  25      -0.00003637
  26      -0.00005510
  27       0.00000000
  28      -0.00001222
  29       0.00000000
  30      -0.00006959
  31      -0.00007144
  32      -0.00003344
  33      -0.00000000
  34       0.00002278
  35      -0.00000000
  36      -0.00000280
  37       0.00000000
  38      -0.00000051
  39      -0.00000120
  40       0.00000000
  41      -0.00000178
  42       0.00000174
  43       0.00000000
  44      -0.00000207
  45      -0.00000000
  46      -0.00000021
  47       0.00000000
  48      -0.00000505
  49      -0.00000019
  50       0.00000000
  51       0.00000118
  52      -0.00000659
  53       0.00000000
  54       0.00000182
  55       0.00000000
  56       0.97138313
  57      -0.01064289
  58       0.04883182
  59      -0.01780295
  60      -0.00256352
  61       0.00026784
  62      -0.00000000
  63       0.00010785
  64      -0.00084980
  65      -0.00000000
  66      -0.00021516
  67      -0.00003479
  68       0.00000000
  69      -0.00000455
  70      -0.00043748
  71      -0.00000000
  72      -0.00004223
  73       0.00266220
  74       0.00307890
  75       0.00307421
  76      -0.00000000
  77      -0.00000246
  78      -0.00000000
  79       0.00843249
  80       0.00843497
  81       0.00844357
  82       0.00000000
  83       0.00000324
  84       0.00000000
  85       0.00324439
  86       0.00328931
  87       0.00327403
  88      -0.00000000
  89      -0.00000702
  90      -0.00000000
  91       0.00032813
  92       0.00000000
  93       0.00007483
  94       0.00013389
  95       0.00000000
  96       0.00003330
  97       0.00013388
  98       0.00000000
  99       0.00003277
 100       0.00000000
 101       0.00025309
 102       0.00000000
 103       0.00006458
 104       0.00011873
 105       0.00000000
 106       0.00002736
 107       0.00011906
 108       0.00000000
 109       0.00003006
 110      -0.00000000
 111      -0.00026263
 112      -0.00014479
 113      -0.00029929
 114       0.00123344
 115       0.00133283
 116      -0.00004536
 117      -0.00000000
 118      -0.00000819
 119       0.00011529
 120      -0.00000000
 121       0.00003144
 122       0.00020199
 123       0.00000000
 124       0.00004049
 125      -0.00041198
 126       0.00000000
 127      -0.00002290
 128      -0.00003583
 129      -0.00003910
 130      -0.00004092
 131      -0.00000000
 132      -0.00000017
 133       0.00000000
 134      -0.00029669
 135      -0.00037455
 136      -0.00036775
 137      -0.00000000
 138       0.00000064
 139      -0.00000000
 140      -0.00046771
 141      -0.00044288
 142      -0.00045446
 143      -0.00000000
 144      -0.00000227
 145       0.00000000
 146      -0.00009260
 147      -0.00000000
 148      -0.00001456
 149      -0.00002585
 150      -0.00000000
 151      -0.00000627
 152      -0.00002571
 153      -0.00000000
 154      -0.00000698
 155       0.00000000
 156      -0.00010498
 157      -0.00000000
 158      -0.00002220
 159      -0.00004091
 160       0.00000000
 161      -0.00001071
 162      -0.00004132
 163      -0.00000000
 164      -0.00000892
 165      -0.00000000
 166   0.00000000E+00
Ene=    -1.25421E+00
Spin= Alpha
Occup=   1.0000000000
   1      -0.00000972
   2       0.00068720
   3       0.00024595
   4       0.00047574
   5      -0.00069375
   6       0.00000475
   7       0.00000000
   8      -0.00006392
   9       0.00000390
  10       0.00000000
  11      -0.00001457
  12       0.00001595
  13       0.00000000
  14       0.00018532
  15      -0.00009495
  16      -0.00000000
  17       0.00036771
  18       0.00001364
  19       0.00001362
  20       0.00000161
  21       0.00000000
  22       0.00000330
  23       0.00000000
  24       0.00003205
  25       0.00003105
  26       0.00012150
  27       0.00000000
  28      -0.00002158
  29      -0.00000000
  30       0.00019674
  31       0.00020140
  32      -0.00005938
  33       0.00000000
  34       0.00005706
  35       0.00000000
  36      -0.00000142
  37      -0.00000000
  38      -0.00003536
  39      -0.00000061
  40      -0.00000000
  41      -0.00000909
  42       0.00000328
  43      -0.00000000
  44      -0.00000824
  45       0.00000000
  46       0.00000609
  47      -0.00000000
  48      -0.00008937
  49       0.00000264
  50      -0.00000000
  51      -0.00005945
  52      -0.00000862
  53      -0.00000000
  54      -0.00006196
  55      -0.00000000
  56      -0.00402793
  57       0.17507612
  58       0.05026269
  59       0.12583074
  60       0.00403943
  61       0.01127390
  62       0.00000000
  63       0.00041529
  64       0.01187083
  65       0.00000000
  66       0.00056341
  67       0.00917632
  68       0.00000000
  69       0.00114645
  70      -0.00056250
  71       0.00000000
  72       0.00036463
  73       0.00030547
  74       0.00079243
  75       0.00080396
  76      -0.00000000
  77       0.00000899
  78      -0.00000000
  79       0.00135861
  80      -0.00049226
  81      -0.00044889
  82       0.00000000
  83       0.00001917
  84      -0.00000000
  85       0.00207437
  86      -0.00067863
  87      -0.00023005
  88       0.00000000
  89       0.00020497
  90      -0.00000000
  91       0.00090959
  92       0.00000000
  93       0.00002020
  94       0.00043936
  95       0.00000000
  96       0.00001545
  97       0.00042773
  98       0.00000000
  99       0.00001507
 100      -0.00000000
 101       0.00391362
 102       0.00000000
 103       0.00011487
 104       0.00007495
 105       0.00000000
 106       0.00001357
 107       0.00013797
 108       0.00000000
 109       0.00001714
 110      -0.00000000
 111      -0.00754254
 112       0.52075500
 113       0.14922741
 114       0.37335712
 115       0.02772216
 116       0.00920482
 117       0.00000001
 118       0.00100240
 119       0.01159524
 120       0.00000001
 121       0.00123156
 122       0.00845284
 123       0.00000001
 124       0.00184434
 125      -0.00224896
 126       0.00000000
 127       0.00036375
 128      -0.00543706
 129       0.00428399
 130       0.00429800
 131       0.00000000
 132      -0.00008382
 133      -0.00000000
 134      -0.01573381
 135       0.00231056
 136       0.00242670
 137      -0.00000000
 138      -0.00021761
 139      -0.00000000
 140      -0.01332307
 141      -0.00487125
 142      -0.00436220
 143      -0.00000000
 144      -0.00055563
 145      -0.00000000
 146      -0.00009217
 147       0.00000000
 148       0.00007207
 149       0.00004455
 150       0.00000000
 151       0.00002138
 152       0.00006397
 153       0.00000000
 154       0.00003729
 155      -0.00000000
 156      -0.00238061
 157       0.00000000
 158       0.00025009
 159       0.00062100
 160       0.00000000
 161       0.00003800
 162       0.00050186
 163       0.00000000
 164       0.00007747
 165       0.00000000
 166   0.00000000E+00
Ene=    -1.18556E+00
Spin= Alpha
Occup=   1.0000000000
   1      -0.00941393
   2       0.55101242
   3       0.15799650
   4       0.39798533
   5       0.03425442
   6      -0.00034926
   7       0.00000002
   8      -0.00188225
   9      -0.00054480
  10       0.00000002
  11      -0.00263857
  12      -0.00117003
  13       0.00000002
  14      -0.00493439
  15      -0.00011889
  16       0.00000000
  17      -0.00080808
  18       0.00146812
  19       0.00146858
  20       0.00149380
  21       0.00000000
  22       0.00000325
  23       0.00000000
  24      -0.00251963
  25      -0.00252818
  26      -0.00222799
  27       0.00000000
  28       0.00006254
  29       0.00000000
  30      -0.00205076
  31      -0.00205967
  32      -0.00103252
  33       0.00000000
  34       0.00028133
  35       0.00000000
  36      -0.00000582
  37       0.00000000
  38      -0.00008117
  39      -0.00000265
  40       0.00000000
  41      -0.00004524
  42       0.00000550
  43       0.00000000
  44      -0.00004449
  45       0.00000000
  46       0.00000349
  47       0.00000001
  48      -0.00040205
  49       0.00000200
  50       0.00000000
  51      -0.00011251
  52      -0.00005375
  53       0.00000000
  54      -0.00011325
  55      -0.00000000
  56      -0.00000116
  57       0.00052040
  58       0.00020380
  59       0.00024987
  60      -0.00043062
  61      -0.00002321
  62      -0.00000000
  63       0.00005021
  64      -0.00004018
  65       0.00000000
  66       0.00003968
  67      -0.00009148
  68       0.00000000
  69      -0.00009144
  70       0.00005909
  71      -0.00000000
  72      -0.00026316
  73       0.00000979
  74       0.00001359
  75       0.00000353
  76      -0.00000000
  77      -0.00000018
  78      -0.00000000
  79       0.00003777
  80       0.00005068
  81       0.00012848
  82       0.00000000
  83       0.00000514
  84       0.00000000
  85       0.00017494
  86       0.00018515
  87      -0.00003613
  88      -0.00000000
  89      -0.00001016
  90      -0.00000000
  91       0.00000568
  92      -0.00000000
  93       0.00001869
  94       0.00000224
  95      -0.00000000
  96       0.00000114
  97       0.00000390
  98      -0.00000000
  99       0.00000138
 100      -0.00000000
 101       0.00002531
 102      -0.00000000
 103       0.00004358
 104       0.00001279
 105      -0.00000000
 106       0.00004167
 107       0.00000861
 108      -0.00000000
 109       0.00003971
 110       0.00000000
 111       0.00002866
 112      -0.00108071
 113      -0.00024132
 114      -0.00100445
 115      -0.00067447
 116      -0.00005123
 117      -0.00000000
 118       0.00004864
 119      -0.00004171
 120      -0.00000000
 121       0.00004395
 122       0.00005683
 123       0.00000000
 124      -0.00006692
 125      -0.00000887
 126      -0.00000000
 127      -0.00028696
 128       0.00002441
 129       0.00000252
 130      -0.00000724
 131      -0.00000000
 132       0.00000060
 133      -0.00000000
 134       0.00010702
 135       0.00006374
 136       0.00013885
 137      -0.00000000
 138      -0.00000531
 139       0.00000000
 140       0.00023416
 141       0.00023237
 142       0.00001673
 143       0.00000000
 144       0.00001416
 145      -0.00000000
 146      -0.00000989
 147      -0.00000000
 148       0.00001500
 149      -0.00000417
 150      -0.00000000
 151      -0.00000030
 152      -0.00000578
 153      -0.00000000
 154       0.00000004
 155       0.00000000
 156      -0.00003067
 157      -0.00000000
 158       0.00003214
 159      -0.00001738
 160      -0.00000000
 161       0.00003576
 162      -0.00001319
 163      -0.00000000
 164       0.00003376
 165      -0.00000000
 166   0.00000000E+00
Ene=    -1.14963E+00
Spin= Alpha
Occup=   1.0000000000
   1      -0.00000021
   2      -0.00097333
   3      -0.00027727
   4      -0.00056783
   5      -0.00028517
   6      -0.00001476
   7      -0.00000000
   8      -0.00003739
   9      -0.00001380
  10      -0.00000000
  11      -0.00000344
  12      -0.00001134
  13       0.00000000
  14       0.00018091
  15       0.00019207
  16      -0.00000000
  17       0.00010011
  18       0.00000214
  19       0.00000218
  20      -0.00000210
  21      -0.00000000
  22      -0.00000624
  23      -0.00000000
  24      -0.00000975
  25      -0.00001056
  26       0.00002675
  27      -0.00000000
  28       0.00004408
  29      -0.00000000
  30       0.00002664
  31       0.00003036
  32      -0.00008840
  33       0.00000000
  34      -0.00011999
  35       0.00000000
  36       0.00000201
  37      -0.00000000
  38      -0.00002313
  39       0.00000091
  40      -0.00000000
  41      -0.00000713
  42      -0.00000747
  43      -0.00000000
  44      -0.00000659
  45      -0.00000000
  46      -0.00001977
  47      -0.00000000
  48      -0.00006760
  49      -0.00000887
  50      -0.00000000
  51      -0.00003963
  52       0.00001533
  53      -0.00000000
  54      -0.00004122
  55       0.00000000
  56      -0.00932211
  57       0.51646895
  58       0.14724513
  59       0.38117818
  60       0.04022154
  61      -0.01254844
  62       0.00000000
  63       0.00118934
  64      -0.01345975
  65       0.00000001
  66       0.00173711
  67      -0.00636454
  68       0.00000001
  69       0.00402818
  70       0.00251830
  71       0.00000000
  72       0.00061379
  73      -0.00096906
  74       0.00244838
  75       0.00246604
  76      -0.00000000
  77      -0.00001742
  78      -0.00000000
  79      -0.00554396
  80      -0.00084729
  81      -0.00062922
  82      -0.00000000
  83      -0.00002648
  84      -0.00000000
  85      -0.00367689
  86      -0.00297652
  87      -0.00192805
  88       0.00000000
  89       0.00026281
  90      -0.00000000
  91      -0.00021163
  92       0.00000000
  93       0.00001705
  94      -0.00018769
  95       0.00000000
  96       0.00000600
  97      -0.00019761
  98       0.00000000
  99       0.00002063
 100       0.00000000
 101       0.00186301
 102       0.00000000
 103       0.00016808
 104      -0.00020009
 105       0.00000000
 106      -0.00002011
 107      -0.00014488
 108       0.00000000
 109      -0.00001110
 110      -0.00000000
 111       0.00150820
 112      -0.19954418
 113      -0.05685407
 114      -0.14857237
 115      -0.01934651
 116      -0.01735801
 117      -0.00000000
 118      -0.00029284
 119      -0.01877041
 120      -0.00000000
 121      -0.00041475
 122      -0.01273750
 123      -0.00000000
 124      -0.00089405
 125       0.00200357
 126      -0.00000000
 127      -0.00006880
 128       0.00274639
 129      -0.00160982
 130      -0.00161047
 131      -0.00000000
 132       0.00002309
 133       0.00000000
 134       0.00966019
 135      -0.00130732
 136      -0.00137196
 137      -0.00000000
 138       0.00006045
 139       0.00000000
 140       0.00849474
 141       0.00185216
 142       0.00172656
 143      -0.00000000
 144       0.00021784
 145       0.00000000
 146      -0.00089680
 147      -0.00000000
 148      -0.00001128
 149      -0.00053545
 150      -0.00000000
 151       0.00000838
 152      -0.00054019
 153      -0.00000000
 154      -0.00000546
 155       0.00000000
 156      -0.00302488
 157      -0.00000000
 158      -0.00003480
 159      -0.00030246
 160      -0.00000000
 161       0.00000077
 162      -0.00027470
 163      -0.00000000
 164      -0.00000728
 165      -0.00000000
 166   0.00000000E+00
Ene=    -4.28879E-01
Spin= Alpha
Occup=   1.0000000000
   1      -0.00005076
   2      -0.00132968
   3      -0.00015305
   4      -0.00171380
   5      -0.00256727
   6       0.00082219
   7      -0.00000000
   8      -0.00447250
   9       0.00100351
  10      -0.00000000
  11      -0.00510170
  12       0.00085909
  13      -0.00000000
  14      -0.00251915
  15      -0.00073550
  16       0.00000000
  17      -0.00021751
  18       0.00003334
  19       0.00003303
  20       0.00006561
  21       0.00000000
  22       0.00000606
  23      -0.00000000
  24       0.00029999
  25       0.00029026
  26       0.00038089
  27      -0.00000000
  28      -0.00008868
  29      -0.00000000
  30       0.00017428
  31       0.00021801
  32       0.00002902
  33       0.00000000
  34       0.00027096
  35      -0.00000000
  36      -0.00000006
  37      -0.00000000
  38      -0.00020230
  39      -0.00000038
  40      -0.00000000
  41      -0.00008791
  42       0.00001081
  43      -0.00000000
  44      -0.00008531
  45       0.00000000
  46       0.00000385
  47      -0.00000000
  48      -0.00055323
  49       0.00000270
  50      -0.00000000
  51      -0.00024548
  52      -0.00002930
  53       0.00000000
  54      -0.00025278
  55      -0.00000000
  56      -0.00014487
  57      -0.00231522
  58      -0.00080039
  59      -0.00261179
  60       0.00191058
  61       0.00146645
  62      -0.00000007
  63       0.05375955
  64       0.00172278
  65      -0.00000008
  66       0.05929696
  67       0.00032986
  68      -0.00000006
  69       0.04550691
  70       0.00118326
  71      -0.00000001
  72       0.00463863
  73       0.00000119
  74      -0.00005885
  75       0.00006443
  76      -0.00000000
  77       0.00036285
  78      -0.00000000
  79      -0.00017194
  80      -0.00003175
  81      -0.00010231
  82      -0.00000000
  83       0.00218348
  84       0.00000000
  85      -0.00104971
  86      -0.00128894
  87       0.00078544
  88       0.00000000
  89      -0.00023419
  90       0.00000000
  91       0.00006045
  92      -0.00000000
  93       0.00233181
  94       0.00003798
  95      -0.00000000
  96       0.00120026
  97      -0.00000183
  98      -0.00000000
  99       0.00106499
 100      -0.00000000
 101       0.00003414
 102      -0.00000000
 103       0.00280710
 104      -0.00001247
 105      -0.00000000
 106       0.00196008
 107       0.00016620
 108      -0.00000000
 109       0.00112481
 110       0.00000000
 111      -0.00018448
 112      -0.00396692
 113      -0.00128597
 114      -0.00341572
 115       0.00450496
 116      -0.00333402
 117      -0.00000053
 118       0.38411282
 119      -0.00371523
 120      -0.00000058
 121       0.42374395
 122      -0.00488301
 123      -0.00000044
 124       0.32042922
 125      -0.00229237
 126      -0.00000008
 127       0.05633147
 128      -0.00002727
 129      -0.00012067
 130       0.00016888
 131      -0.00000000
 132       0.00090838
 133       0.00000000
 134      -0.00029309
 135      -0.00009483
 136       0.00048523
 137      -0.00000000
 138       0.00259544
 139       0.00000000
 140       0.00009813
 141      -0.00136368
 142       0.00322703
 143      -0.00000001
 144       0.00588810
 145       0.00000000
 146      -0.00006487
 147      -0.00000002
 148       0.01687009
 149      -0.00007907
 150      -0.00000001
 151       0.00658451
 152      -0.00001188
 153      -0.00000001
 154       0.00758029