[Molden Format]
[Atoms] Angs
F       1       9     0.00000000     0.00000000     4.00000000
F       2       9    -0.95000000     0.00000000     0.00000000
F       3       9     0.95000000     0.00000000     0.00000000
E+       4       1     0.00000000     0.00000000     0.00000000
[GTO]
  1 0
s  8 1.00
   1.9500000000E+04   5.0700000000E-04
   2.9230000000E+03   3.9230000000E-03
   6.6450000000E+02   2.0200000000E-02
   1.8750000000E+02   7.9010000000E-02
   6.0620000000E+01   2.3043900000E-01
   2.1420000000E+01   4.3287200000E-01
   7.9500000000E+00   3.4996400000E-01
   8.8150000000E-01  -7.8920000000E-03
s  8 1.00
   1.9500000000E+04  -1.1700000000E-04
   2.9230000000E+03  -9.1200000000E-04
   6.6450000000E+02  -4.7170000000E-03
   1.8750000000E+02  -1.9086000000E-02
   6.0620000000E+01  -5.9655000000E-02
   2.1420000000E+01  -1.4001000000E-01
   7.9500000000E+00  -1.7678200000E-01
   8.8150000000E-01   6.0504300000E-01
s  1 1.00
   2.2570000000E+00   1.0000000000E+00
s  1 1.00
   3.0410000000E-01   1.0000000000E+00
s  1 1.00
   9.1580000000E-02   1.0000000000E+00
p  3 1.00
   4.3880000000E+01   1.6665000000E-02
   9.9260000000E+00   1.0447200000E-01
   2.9300000000E+00   3.1726000000E-01
p  1 1.00
   9.1320000000E-01   1.0000000000E+00
p  1 1.00
   2.6720000000E-01   1.0000000000E+00
p  1 1.00
   7.3610000000E-02   1.0000000000E+00
d  1 1.00
   3.1070000000E+00   1.0000000000E+00
d  1 1.00
   8.5500000000E-01   1.0000000000E+00
d  1 1.00
   2.9200000000E-01   1.0000000000E+00
f  1 1.00
   1.9170000000E+00   1.0000000000E+00
f  1 1.00
   7.2400000000E-01   1.0000000000E+00
 
  2 0
s  8 1.00
   1.9500000000E+04   5.0700000000E-04
   2.9230000000E+03   3.9230000000E-03
   6.6450000000E+02   2.0200000000E-02
   1.8750000000E+02   7.9010000000E-02
   6.0620000000E+01   2.3043900000E-01
   2.1420000000E+01   4.3287200000E-01
   7.9500000000E+00   3.4996400000E-01
   8.8150000000E-01  -7.8920000000E-03
s  8 1.00
   1.9500000000E+04  -1.1700000000E-04
   2.9230000000E+03  -9.1200000000E-04
   6.6450000000E+02  -4.7170000000E-03
   1.8750000000E+02  -1.9086000000E-02
   6.0620000000E+01  -5.9655000000E-02
   2.1420000000E+01  -1.4001000000E-01
   7.9500000000E+00  -1.7678200000E-01
   8.8150000000E-01   6.0504300000E-01
s  1 1.00
   2.2570000000E+00   1.0000000000E+00
s  1 1.00
   3.0410000000E-01   1.0000000000E+00
s  1 1.00
   9.1580000000E-02   1.0000000000E+00
p  3 1.00
   4.3880000000E+01   1.6665000000E-02
   9.9260000000E+00   1.0447200000E-01
   2.9300000000E+00   3.1726000000E-01
p  1 1.00
   9.1320000000E-01   1.0000000000E+00
p  1 1.00
   2.6720000000E-01   1.0000000000E+00
p  1 1.00
   7.3610000000E-02   1.0000000000E+00
d  1 1.00
   3.1070000000E+00   1.0000000000E+00
d  1 1.00
   8.5500000000E-01   1.0000000000E+00
d  1 1.00
   2.9200000000E-01   1.0000000000E+00
f  1 1.00
   1.9170000000E+00   1.0000000000E+00
f  1 1.00
   7.2400000000E-01   1.0000000000E+00
 
  3 0
s  8 1.00
   1.9500000000E+04   5.0700000000E-04
   2.9230000000E+03   3.9230000000E-03
   6.6450000000E+02   2.0200000000E-02
   1.8750000000E+02   7.9010000000E-02
   6.0620000000E+01   2.3043900000E-01
   2.1420000000E+01   4.3287200000E-01
   7.9500000000E+00   3.4996400000E-01
   8.8150000000E-01  -7.8920000000E-03
s  8 1.00
   1.9500000000E+04  -1.1700000000E-04
   2.9230000000E+03  -9.1200000000E-04
   6.6450000000E+02  -4.7170000000E-03
   1.8750000000E+02  -1.9086000000E-02
   6.0620000000E+01  -5.9655000000E-02
   2.1420000000E+01  -1.4001000000E-01
   7.9500000000E+00  -1.7678200000E-01
   8.8150000000E-01   6.0504300000E-01
s  1 1.00
   2.2570000000E+00   1.0000000000E+00
s  1 1.00
   3.0410000000E-01   1.0000000000E+00
s  1 1.00
   9.1580000000E-02   1.0000000000E+00
p  3 1.00
   4.3880000000E+01   1.6665000000E-02
   9.9260000000E+00   1.0447200000E-01
   2.9300000000E+00   3.1726000000E-01
p  1 1.00
   9.1320000000E-01   1.0000000000E+00
p  1 1.00
   2.6720000000E-01   1.0000000000E+00
p  1 1.00
   7.3610000000E-02   1.0000000000E+00
d  1 1.00
   3.1070000000E+00   1.0000000000E+00
d  1 1.00
   8.5500000000E-01   1.0000000000E+00
d  1 1.00
   2.9200000000E-01   1.0000000000E+00
f  1 1.00
   1.9170000000E+00   1.0000000000E+00
f  1 1.00
   7.2400000000E-01   1.0000000000E+00
 
  4 0
 s  1 1.00
   1.0000000000E+00   1.0000000000E+00
 
 
[MO]
Ene=    -2.61258E+01
Spin= Alpha
Occup=   1.0000000000
   1      -0.00001201
   2      -0.00002006
   3      -0.00003926
   4       0.00016633
   5       0.00013634
   6       0.00000087
   7       0.00000000
   8      -0.00000158
   9      -0.00000287
  10      -0.00000000
  11       0.00000716
  12      -0.00001222
  13      -0.00000000
  14       0.00001640
  15       0.00003047
  16       0.00000000
  17      -0.00006714
  18      -0.00000620
  19      -0.00000641
  20      -0.00000154
  21       0.00000000
  22      -0.00000312
  23      -0.00000000
  24      -0.00004312
  25      -0.00004230
  26      -0.00006175
  27      -0.00000000
  28       0.00001210
  29       0.00000000
  30      -0.00007607
  31      -0.00007782
  32      -0.00003829
  33       0.00000000
  34      -0.00002276
  35      -0.00000000
  36       0.00000306
  37       0.00000000
  38      -0.00000201
  39       0.00000132
  40       0.00000000
  41      -0.00000253
  42      -0.00000167
  43       0.00000000
  44      -0.00000280
  45       0.00000000
  46       0.00000021
  47       0.00000000
  48      -0.00000726
  49       0.00000020
  50       0.00000000
  51       0.00000037
  52       0.00000670
  53       0.00000000
  54       0.00000098
  55      -0.00000000
  56      -0.00023555
  57      -0.00025579
  58      -0.00037635
  59       0.00159445
  60       0.00139009
  61       0.00007192
  62       0.00000000
  63      -0.00000777
  64      -0.00036311
  65      -0.00000000
  66       0.00003071
  67      -0.00048158
  68      -0.00000000
  69       0.00003976
  70       0.00041835
  71       0.00000000
  72      -0.00002305
  73      -0.00004657
  74      -0.00003226
  75      -0.00003421
  76      -0.00000000
  77       0.00000004
  78      -0.00000000
  79      -0.00039916
  80      -0.00047905
  81      -0.00047179
  82       0.00000000
  83      -0.00000027
  84       0.00000000
  85      -0.00064761
  86      -0.00056231
  87      -0.00057473
  88      -0.00000000
  89       0.00000098
  90      -0.00000000
  91       0.00015542
  92       0.00000000
  93      -0.00001408
  94       0.00007689
  95       0.00000000
  96      -0.00000627
  97       0.00007674
  98       0.00000000
  99      -0.00000680
 100       0.00000000
 101       0.00026898
 102       0.00000000
 103      -0.00002197
 104       0.00005854
 105       0.00000000
 106      -0.00001010
 107       0.00005897
 108       0.00000000
 109      -0.00000873
 110      -0.00000000
 111       0.97077091
 112      -0.00992995
 113       0.05066758
 114      -0.01823133
 115      -0.00261967
 116       0.00001146
 117      -0.00000000
 118       0.00004432
 119      -0.00069794
 120       0.00000000
 121      -0.00006733
 122      -0.00056074
 123       0.00000000
 124       0.00003426
 125       0.00047044
 126      -0.00000000
 127      -0.00005167
 128       0.00319692
 129       0.00235561
 130       0.00235266
 131      -0.00000000
 132       0.00000502
 133       0.00000000
 134       0.00822302
 135       0.00853373
 136       0.00854354
 137       0.00000000
 138      -0.00000463
 139      -0.00000000
 140       0.00359471
 141       0.00335151
 142       0.00333480
 143      -0.00000000
 144       0.00000706
 145       0.00000000
 146       0.00032774
 147      -0.00000000
 148       0.00002021
 149       0.00014115
 150      -0.00000000
 151       0.00000944
 152       0.00014107
 153      -0.00000000
 154       0.00000835
 155       0.00000000
 156       0.00037180
 157      -0.00000000
 158       0.00000900
 159       0.00015304
 160      -0.00000000
 161       0.00000289
 162       0.00015267
 163      -0.00000000
 164       0.00000536
 165      -0.00000000
 166   0.00000000E+00
Ene=    -2.59733E+01
Spin= Alpha
Occup=   1.0000000000
   1      -0.00001549
   2      -0.00001914
   3      -0.00003729
   4       0.00015505
   5       0.00013499
   6      -0.00000050
   7      -0.00000000
   8      -0.00000072
   9       0.00000132
  10       0.00000000
  11       0.00000373
  12       0.00001093
  13       0.00000000
  14       0.00001363
  15      -0.00002955
  16       0.00000000
  17      -0.00006677
  18      -0.00000600
  19      -0.00000616
  20      -0.00000117
  21      -0.00000000
  22       0.00000312
  23      -0.00000000
  24      -0.00004010
  25      -0.00003944
  26      -0.00005937
  27       0.00000000
  28      -0.00001211
  29       0.00000000
  30      -0.00007394
  31      -0.00007541
  32      -0.00003496
  33      -0.00000000
  34       0.00002272
  35      -0.00000000
  36      -0.00000237
  37      -0.00000000
  38      -0.00000041
  39      -0.00000101
  40      -0.00000000
  41      -0.00000188
  42       0.00000199
  43      -0.00000000
  44      -0.00000214
  45      -0.00000000
  46       0.00000070
  47      -0.00000000
  48      -0.00000530
  49       0.00000020
  50      -0.00000000
  51       0.00000139
  52      -0.00000630
  53      -0.00000000
  54       0.00000196
  55       0.00000000
  56       0.97105109
  57      -0.01015435
  58       0.04992309
  59      -0.01821678
  60      -0.00265673
  61       0.00001130
  62      -0.00000000
  63       0.00009905
  64       0.00052905
  65       0.00000000
  66      -0.00018335
  67       0.00046512
  68       0.00000000
  69       0.00000493
  70      -0.00049256
  71      -0.00000000
  72      -0.00004546
  73       0.00301338
  74       0.00266851
  75       0.00266483
  76       0.00000000
  77       0.00000158
  78       0.00000000
  79       0.00839924
  80       0.00850807
  81       0.00851717
  82      -0.00000000
  83       0.00000295
  84      -0.00000000
  85       0.00350932
  86       0.00338378
  87       0.00336771
  88       0.00000000
  89      -0.00000671
  90       0.00000000
  91      -0.00024584
  92      -0.00000000
  93       0.00006235
  94      -0.00010811
  95      -0.00000000
  96       0.00002817
  97      -0.00010811
  98      -0.00000000
  99       0.00002716
 100      -0.00000000
 101      -0.00028551
 102      -0.00000000
 103       0.00005264
 104      -0.00011489
 105      -0.00000000
 106       0.00002214
 107      -0.00011457
 108      -0.00000000
 109       0.00002480
 110       0.00000000
 111      -0.00002056
 112      -0.00022923
 113      -0.00033912
 114       0.00145813
 115       0.00140809
 116      -0.00004957
 117       0.00000000
 118      -0.00000850
 119       0.00026164
 120      -0.00000000
 121       0.00003370
 122       0.00041269
 123      -0.00000000
 124       0.00004313
 125      -0.00042367
 126       0.00000000
 127      -0.00002532
 128      -0.00004421
 129      -0.00003288
 130      -0.00003485
 131       0.00000000
 132      -0.00000013
 133      -0.00000000
 134      -0.00036062
 135      -0.00044146
 136      -0.00043414
 137      -0.00000000
 138       0.00000046
 139       0.00000000
 140      -0.00060972
 141      -0.00052315
 142      -0.00053566
 143       0.00000000
 144      -0.00000164
 145      -0.00000000
 146      -0.00012548
 147       0.00000000
 148      -0.00001549
 149      -0.00005287
 150       0.00000000
 151      -0.00000670
 152      -0.00005273
 153       0.00000000
 154      -0.00000743
 155      -0.00000000
 156      -0.00020362
 157       0.00000000
 158      -0.00002369
 159      -0.00005395
 160       0.00000000
 161      -0.00001137
 162      -0.00005435
 163       0.00000000
 164      -0.00000951
 165       0.00000000
 166   0.00000000E+00
Ene=    -2.59329E+01
Spin= Alpha
Occup=   1.0000000000
   1       0.97110233
   2      -0.01060848
   3       0.04905488
   4      -0.01655721
   5      -0.00131946
   6      -0.00002577
   7      -0.00000000
   8      -0.00013876
   9       0.00005573
  10       0.00000001
  11       0.00026068
  12       0.00001387
  13       0.00000000
  14      -0.00001166
  15      -0.00000268
  16      -0.00000000
  17       0.00007325
  18       0.00283871
  19       0.00283883
  20       0.00283416
  21      -0.00000000
  22      -0.00000033
  23      -0.00000000
  24       0.00806274
  25       0.00806159
  26       0.00807615
  27       0.00000000
  28      -0.00000022
  29       0.00000000
  30       0.00284404
  31       0.00284590
  32       0.00282047
  33      -0.00000000
  34       0.00000024
  35      -0.00000000
  36      -0.00002042
  37      -0.00000000
  38      -0.00008911
  39      -0.00000913
  40      -0.00000000
  41      -0.00003906
  42      -0.00000917
  43      -0.00000000
  44      -0.00003888
  45      -0.00000000
  46      -0.00002079
  47      -0.00000000
  48      -0.00007184
  49      -0.00000930
  50      -0.00000000
  51      -0.00003358
  52      -0.00000936
  53      -0.00000000
  54      -0.00003399
  55       0.00000000
  56      -0.00000542
  57      -0.00001850
  58      -0.00003562
  59       0.00015474
  60       0.00010622
  61      -0.00000182
  62       0.00000000
  63       0.00000251
  64       0.00000783
  65      -0.00000000
  66      -0.00001149
  67       0.00000899
  68      -0.00000000
  69      -0.00001904
  70       0.00000215
  71       0.00000000
  72       0.00004919
  73      -0.00000536
  74      -0.00000601
  75      -0.00000146
  76       0.00000000
  77       0.00000024
  78       0.00000000
  79      -0.00004040
  80      -0.00003794
  81      -0.00005602
  82      -0.00000000
  83      -0.00000117
  84      -0.00000000
  85      -0.00006431
  86      -0.00007218
  87      -0.00003651
  88       0.00000000
  89       0.00000265
  90       0.00000000
  91      -0.00000315
  92       0.00000000
  93       0.00000390
  94      -0.00000168
  95       0.00000000
  96       0.00000325
  97      -0.00000170
  98       0.00000000
  99       0.00000371
 100       0.00000000
 101      -0.00000545
 102       0.00000000
 103       0.00000946
 104      -0.00000153
 105       0.00000000
 106       0.00000093
 107      -0.00000163
 108       0.00000000
 109      -0.00000012
 110      -0.00000000
 111      -0.00000940
 112      -0.00001841
 113      -0.00003588
 114       0.00015485
 115       0.00010611
 116       0.00000188
 117       0.00000000
 118       0.00000257
 119      -0.00000816
 120      -0.00000000
 121      -0.00001159
 122      -0.00000882
 123      -0.00000000
 124      -0.00001920
 125      -0.00000163
 126       0.00000000
 127       0.00004996
 128      -0.00000540
 129      -0.00000605
 130      -0.00000146
 131      -0.00000000
 132      -0.00000025
 133       0.00000000
 134      -0.00004043
 135      -0.00003801
 136      -0.00005621
 137       0.00000000
 138       0.00000119
 139      -0.00000000
 140      -0.00006488
 141      -0.00007233
 142      -0.00003637
 143      -0.00000000
 144      -0.00000271
 145       0.00000000
 146       0.00000325
 147       0.00000000
 148       0.00000395
 149       0.00000176
 150       0.00000000
 151       0.00000328
 152       0.00000177
 153       0.00000000
 154       0.00000375
 155      -0.00000000
 156       0.00000567
 157       0.00000000
 158       0.00000957
 159       0.00000153
 160       0.00000000
 161       0.00000096
 162       0.00000164
 163       0.00000000
 164      -0.00000010
 165       0.00000000
 166   0.00000000E+00
Ene=    -1.39894E+00
Spin= Alpha
Occup=   1.0000000000
   1      -0.00004440
   2      -0.00021482
   3      -0.00019049
   4       0.00042405
   5       0.00090275
   6       0.00000151
   7       0.00000000
   8       0.00002167
   9      -0.00001870
  10       0.00000000
  11       0.00004360
  12      -0.00009568
  13       0.00000000
  14       0.00004267
  15       0.00021511
  16      -0.00000000
  17      -0.00047966
  18      -0.00001642
  19      -0.00001761
  20      -0.00000558
  21       0.00000000
  22      -0.00000628
  23       0.00000000
  24      -0.00015968
  25      -0.00015219
  26      -0.00023442
  27       0.00000000
  28       0.00003862
  29      -0.00000000
  30      -0.00035458
  31      -0.00037476
  32      -0.00014475
  33       0.00000000
  34      -0.00009871
  35      -0.00000000
  36       0.00001198
  37      -0.00000000
  38       0.00000016
  39       0.00000536
  40      -0.00000000
  41      -0.00000503
  42      -0.00000094
  43      -0.00000000
  44      -0.00000647
  45      -0.00000000
  46       0.00001792
  47      -0.00000000
  48      -0.00000622
  49       0.00000798
  50      -0.00000000
  51       0.00001203
  52       0.00002621
  53      -0.00000000
  54       0.00001626
  55      -0.00000000
  56       0.00148779
  57      -0.08835078
  58      -0.02631819
  59      -0.05299261
  60       0.00339338
  61      -0.01086192
  62       0.00000000
  63      -0.00022612
  64      -0.01285431
  65       0.00000000
  66      -0.00028587
  67      -0.00358832
  68       0.00000001
  69      -0.00033324
  70       0.00219135
  71       0.00000000
  72      -0.00022411
  73      -0.00105253
  74      -0.00000329
  75      -0.00001333
  76      -0.00000000
  77      -0.00001620
  78      -0.00000000
  79      -0.00289419
  80       0.00015131
  81       0.00014738
  82       0.00000000
  83      -0.00003225
  84      -0.00000000
  85       0.00005598
  86      -0.00062018
  87      -0.00085988
  88       0.00000000
  89      -0.00008165
  90       0.00000000
  91      -0.00043776
  92       0.00000000
  93      -0.00001697
  94       0.00002258
  95       0.00000000
  96      -0.00001812
  97       0.00002968
  98       0.00000000
  99      -0.00001120
 100      -0.00000000
 101      -0.00084903
 102       0.00000000
 103      -0.00009005
 104      -0.00004211
 105       0.00000000
 106      -0.00001662
 107      -0.00008187
 108       0.00000000
 109      -0.00002233
 110       0.00000000
 111       0.00572533
 112      -0.56731758
 113      -0.16362687
 114      -0.38563930
 115      -0.02730151
 116       0.01118817
 117       0.00000001
 118      -0.00089954
 119       0.01346922
 120       0.00000002
 121      -0.00118815
 122      -0.00264266
 123       0.00000002
 124      -0.00160528
 125       0.00147906
 126       0.00000000
 127      -0.00042141
 128      -0.00717345
 129       0.00170802
 130       0.00169199
 131       0.00000000
 132      -0.00002585
 133      -0.00000000
 134      -0.00372536
 135       0.01232379
 136       0.01218737
 137       0.00000000
 138       0.00004092
 139       0.00000000
 140       0.01427197
 141       0.01299664
 142       0.01249180
 143      -0.00000000
 144       0.00042432
 145       0.00000000
 146      -0.00032055
 147       0.00000000
 148      -0.00006470
 149      -0.00007222
 150       0.00000000
 151      -0.00005512
 152      -0.00008677
 153       0.00000000
 154      -0.00003429
 155      -0.00000000
 156      -0.00212608
 157       0.00000001
 158      -0.00028236
 159      -0.00057576
 160       0.00000001
 161      -0.00013455
 162      -0.00046324
 163       0.00000001
 164      -0.00008823
 165      -0.00000000
 166   0.00000000E+00
Ene=    -1.23126E+00
Spin= Alpha
Occup=   1.0000000000
   1      -0.00000851
   2       0.00072210
   3       0.00025203
   4       0.00041019
   5      -0.00038098
   6      -0.00000676
   7      -0.00000000
   8      -0.00003649
   9      -0.00001981
  10      -0.00000000
  11      -0.00002897
  12      -0.00006656
  13      -0.00000000
  14       0.00009223
  15       0.00022885
  16       0.00000000
  17       0.00020493
  18       0.00001025
  19       0.00001072
  20       0.00000499
  21      -0.00000000
  22      -0.00000681
  23      -0.00000000
  24       0.00004382
  25       0.00004043
  26       0.00008765
  27       0.00000000
  28       0.00004511
  29       0.00000000
  30       0.00012125
  31       0.00013132
  32      -0.00000765
  33       0.00000000
  34      -0.00011934
  35       0.00000000
  36       0.00000860
  37      -0.00000000
  38      -0.00001346
  39       0.00000387
  40      -0.00000000
  41      -0.00000253
  42      -0.00000413
  43      -0.00000000
  44      -0.00000167
  45       0.00000000
  46       0.00000165
  47      -0.00000000
  48      -0.00004141
  49       0.00000067
  50      -0.00000000
  51      -0.00002858
  52       0.00002378
  53      -0.00000000
  54      -0.00003111
  55      -0.00000000
  56      -0.00822608
  57       0.55355844
  58       0.15934351
  59       0.39265249
  60       0.03625042
  61       0.00847731
  62      -0.00000001
  63       0.00135184
  64       0.01084315
  65      -0.00000002
  66       0.00195810
  67       0.00214765
  68      -0.00000004
  69       0.00347320
  70       0.00244260
  71      -0.00000000
  72       0.00053984
  73       0.00352728
  74       0.00034488
  75       0.00037085
  76       0.00000000
  77       0.00003812
  78       0.00000000
  79      -0.00082151
  80      -0.00668886
  81      -0.00645378
  82       0.00000000
  83       0.00010545
  84       0.00000000
  85      -0.00670859
  86      -0.00746976
  87      -0.00652624
  88      -0.00000000
  89       0.00033177
  90      -0.00000000
  91      -0.00025533
  92      -0.00000001
  93       0.00001856
  94       0.00005931
  95      -0.00000000
  96       0.00002813
  97       0.00004957
  98      -0.00000000
  99       0.00002008
 100       0.00000000
 101      -0.00019984
 102      -0.00000002
 103       0.00020473
 104      -0.00029014
 105      -0.00000001
 106       0.00001948
 107      -0.00021302
 108      -0.00000001
 109       0.00001131
 110      -0.00000000
 111       0.00047129
 112      -0.11114643
 113      -0.03142308
 114      -0.08480155
 115      -0.01420392
 116      -0.01610107
 117       0.00000000
 118      -0.00013276
 119      -0.01750362
 120       0.00000000
 121      -0.00021216
 122      -0.00682078
 123       0.00000000
 124      -0.00051979
 125       0.00262370
 126       0.00000000
 127       0.00000273
 128      -0.00078569
 129       0.00027957
 130       0.00028123
 131       0.00000000
 132      -0.00001572
 133      -0.00000000
 134       0.00227281
 135       0.00266041
 136       0.00261164
 137       0.00000000
 138      -0.00002574
 139       0.00000000
 140       0.00330377
 141       0.00351526
 142       0.00348273
 143       0.00000000
 144       0.00010078
 145       0.00000000
 146      -0.00119307
 147       0.00000000
 148      -0.00000071
 149      -0.00016940
 150       0.00000000
 151       0.00000439
 152      -0.00017017
 153       0.00000000
 154       0.00000016
 155      -0.00000000
 156      -0.00294874
 157       0.00000000
 158       0.00000780
 159      -0.00019011
 160       0.00000000
 161      -0.00002043
 162      -0.00018506
 163       0.00000000
 164       0.00000613
 165       0.00000000
 166   0.00000000E+00
Ene=    -1.18656E+00
Spin= Alpha
Occup=   1.0000000000
   1      -0.00943420
   2       0.55083782
   3       0.15790667
   4       0.39811799
   5       0.03425783
   6      -0.00026218
   7      -0.00000006
   8      -0.00190527
   9      -0.00040401
  10      -0.00000009
  11      -0.00267132
  12      -0.00085372
  13      -0.00000011
  14      -0.00499228
  15      -0.00007992
  16      -0.00000001
  17      -0.00080683
  18       0.00146966
  19       0.00146973
  20       0.00149282
  21      -0.00000000
  22       0.00000415
  23      -0.00000000
  24      -0.00249376
  25      -0.00250039
  26      -0.00219972
  27      -0.00000000
  28       0.00005049
  29      -0.00000000
  30      -0.00202191
  31      -0.00201102
  32      -0.00098646
  33       0.00000000
  34       0.00020487
  35       0.00000001
  36      -0.00000183
  37      -0.00000001
  38      -0.00008526
  39      -0.00000081
  40      -0.00000001
  41      -0.00004758
  42       0.00000500
  43      -0.00000001
  44      -0.00004609
  45      -0.00000000
  46       0.00000758
  47      -0.00000004
  48      -0.00041720
  49       0.00000351
  50      -0.00000002
  51      -0.00011527
  52      -0.00003655
  53      -0.00000002
  54      -0.00012067
  55      -0.00000000
  56       0.00002166
  57      -0.00085763
  58      -0.00018875
  59      -0.00075676
  60      -0.00058334
  61      -0.00000602
  62       0.00000000
  63       0.00004674
  64      -0.00002634
  65      -0.00000000
  66       0.00003516
  67      -0.00008499
  68      -0.00000000
  69      -0.00010111
  70       0.00003902
  71       0.00000000
  72      -0.00027583
  73       0.00000597
  74       0.00001081
  75       0.00000048
  76      -0.00000000
  77      -0.00000018
  78      -0.00000000
  79       0.00005202
  80       0.00006464
  81       0.00014287
  82      -0.00000000
  83       0.00000575
  84      -0.00000000
  85       0.00019748
  86       0.00021018
  87      -0.00001740
  88       0.00000000
  89      -0.00001383
  90       0.00000000
  91       0.00000825
  92       0.00000000
  93       0.00001829
  94       0.00000323
  95       0.00000000
  96       0.00000129
  97       0.00000503
  98       0.00000000
  99       0.00000109
 100       0.00000000
 101       0.00003011
 102       0.00000000
 103       0.00004231
 104       0.00001506
 105       0.00000000
 106       0.00004104
 107       0.00001036
 108       0.00000000
 109       0.00003963
 110      -0.00000000
 111       0.00001480
 112      -0.00005880
 113       0.00004753
 114      -0.00023139
 115      -0.00055252
 116       0.00001772
 117       0.00000000
 118       0.00005188
 119       0.00003537
 120      -0.00000000
 121       0.00004783
 122       0.00009267
 123      -0.00000000
 124      -0.00006927
 125      -0.00003145
 126       0.00000000
 127      -0.00027791
 128       0.00000982
 129       0.00001180
 130       0.00000208
 131       0.00000000
 132       0.00000011
 133       0.00000000
 134       0.00005883
 135       0.00006744
 136       0.00014258
 137      -0.00000000
 138      -0.00000565
 139      -0.00000000
 140       0.00019753
 141       0.00021412
 142      -0.00000131
 143      -0.00000000
 144       0.00001208
 145       0.00000000
 146      -0.00000658
 147       0.00000000
 148       0.00001508
 149      -0.00000284
 150       0.00000000
 151       0.00000044
 152      -0.00000447
 153       0.00000000
 154       0.00000004
 155      -0.00000000
 156      -0.00002509
 157       0.00000000
 158       0.00003334
 159      -0.00001503
 160       0.00000000
 161       0.00003719
 162      -0.00001090
 163       0.00000000
 164       0.00003441
 165       0.00000000
 166   0.00000000E+00
Ene=    -5.67711E-01
Spin= Alpha
Occup=   1.0000000000
   1      -0.00003743
   2      -0.00014823
   3      -0.00000181
   4      -0.00040483
   5       0.00063198
   6      -0.00002818
   7       0.00000000
   8      -0.00013585
   9      -0.00001886
  10      -0.00000000
  11      -0.00029599
  12      -0.00000598
  13       0.00000000
  14       0.00010309
  15       0.00007086
  16      -0.00000000
  17      -0.00047187
  18       0.00000842
  19       0.00000442
  20       0.00002551
  21       0.00000000
  22      -0.00000182
  23       0.00000000
  24       0.00006027
  25       0.00009181
  26      -0.00001235
  27       0.00000000
  28       0.00001393
  29      -0.00000000
  30      -0.00019171
  31      -0.00027382
  32      -0.00003126
  33       0.00000000
  34      -0.00003673
  35       0.00000000
  36      -0.00000513
  37      -0.00000000
  38       0.00003377
  39      -0.00000205
  40      -0.00000000
  41       0.00001516
  42      -0.00000392
  43       0.00000000
  44       0.00001047
  45       0.00000000
  46      -0.00001595
  47       0.00000000
  48       0.00000295
  49      -0.00000783
  50       0.00000000
  51       0.00000216
  52      -0.00000244
  53      -0.00000000
  54       0.00001531
  55      -0.00000000
  56      -0.00101295
  57      -0.05691008
  58      -0.01487211
  59      -0.06308344
  60      -0.02499067
  61       0.11076629
  62       0.00000001
  63       0.00021950
  64       0.12329991
  65       0.00000001
  66       0.00027196
  67       0.07009533
  68       0.00000001
  69       0.00040237
  70       0.00760225
  71      -0.00000000
  72      -0.00017084
  73       0.00092274
  74      -0.00001977
  75      -0.00001570
  76      -0.00000000
  77       0.00009108
  78      -0.00000000
  79       0.00695562
  80       0.00032430
  81       0.00027487
  82      -0.00000001
  83       0.00015287
  84      -0.00000000
  85      -0.00206762
  86       0.00087784
  87       0.00094547
  88      -0.00000002
  89       0.00111490
  90      -0.00000000
  91       0.00475004
  92       0.00000000
  93      -0.00003080
  94       0.00149780
  95       0.00000000
  96      -0.00001464
  97       0.00146676
  98       0.00000000
  99      -0.00001315
 100       0.00000000
 101       0.01001299
 102       0.00000000
 103      -0.00021597
 104       0.00123450
 105      -0.00000000
 106       0.00000318
 107       0.00144437
 108       0.00000000
 109      -0.00009529
 110      -0.00000000
 111       0.00165045
 112      -0.00373144
 113       0.00101126
 114      -0.02188932
 115      -0.00808106
 116      -0.38630356
 117       0.00000004
 118       0.00053681
 119      -0.43854004
 120       0.00000004
 121       0.00065330
 122      -0.26897265
 123       0.00000002
 124       0.00119985
 125      -0.02688369
 126       0.00000000
 127       0.00004946
 128       0.00098309
 129      -0.00048622
 130      -0.00047616
 131       0.00000000
 132      -0.00014457
 133      -0.00000000
 134      -0.00045690
 135       0.00079319
 136       0.00079276
 137       0.00000002
 138      -0.00053062
 139      -0.00000000
 140      -0.01001473
 141       0.00053995
 142       0.00078631
 143       0.00000003
 144      -0.00164741
 145      -0.00000000
 146      -0.01799239
 147      -0.00000000
 148       0.00001134
 149      -0.00273866
 150       0.00000000
 151      -0.00003987
 152      -0.00270949
 153      -0.00000000
 154       0.00000750