[Molden Format]
[Title]
 Molden2AIM, Version 3.1.0 (02/25/2015)           Time: Wed Apr 23 15:22:44 2025

[Atoms] Angs
F       1       9     0.00000000     0.00000000     4.00000000
F       2       9    -0.95000000     0.00000000     0.00000000
F       3       9     0.95000000     0.00000000     0.00000000
E+       4       1     0.00000000     0.00000000     0.00000000
[GTO]
    1 0
 S   8 1.0
    0.1950000000D+05      0.5193715996D-03
    0.2923000000D+04      0.4018727387D-02
    0.6645000000D+03      0.2069291186D-01
    0.1875000000D+03      0.8093796861D-01
    0.6062000000D+02      0.2360620750D+00
    0.2142000000D+02      0.4434347595D+00
    0.7950000000D+01      0.3585036736D+00
    0.8815000000D+00     -0.8084577247D-02
 S   8 1.0
    0.1950000000D+05     -0.1995911530D-03
    0.2923000000D+04     -0.1555787449D-02
    0.6645000000D+03     -0.8046764688D-02
    0.1875000000D+03     -0.3255894654D-01
    0.6062000000D+02     -0.1017658994D+00
    0.2142000000D+02     -0.2388440797D+00
    0.7950000000D+01     -0.3015737026D+00
    0.8815000000D+00      0.1032147265D+01
 S   1 1.0
    0.2257000000D+01      0.1000000000D+01
 S   1 1.0
    0.3041000000D+00      0.1000000000D+01
 S   1 1.0
    0.9158000000D-01      0.1000000000D+01
 P   3 1.0
    0.4388000000D+02      0.4190462069D-01
    0.9926000000D+01      0.2626978417D+00
    0.2930000000D+01      0.7977593735D+00
 P   1 1.0
    0.9132000000D+00      0.1000000000D+01
 P   1 1.0
    0.2672000000D+00      0.1000000000D+01
 P   1 1.0
    0.7361000000D-01      0.1000000000D+01
 D   1 1.0
    0.3107000000D+01      0.1000000000D+01
 D   1 1.0
    0.8550000000D+00      0.1000000000D+01
 D   1 1.0
    0.2920000000D+00      0.1000000000D+01
 F   1 1.0
    0.1917000000D+01      0.1000000000D+01
 F   1 1.0
    0.7240000000D+00      0.1000000000D+01

    2 0
 S   8 1.0
    0.1950000000D+05      0.5193715996D-03
    0.2923000000D+04      0.4018727387D-02
    0.6645000000D+03      0.2069291186D-01
    0.1875000000D+03      0.8093796861D-01
    0.6062000000D+02      0.2360620750D+00
    0.2142000000D+02      0.4434347595D+00
    0.7950000000D+01      0.3585036736D+00
    0.8815000000D+00     -0.8084577247D-02
 S   8 1.0
    0.1950000000D+05     -0.1995911530D-03
    0.2923000000D+04     -0.1555787449D-02
    0.6645000000D+03     -0.8046764688D-02
    0.1875000000D+03     -0.3255894654D-01
    0.6062000000D+02     -0.1017658994D+00
    0.2142000000D+02     -0.2388440797D+00
    0.7950000000D+01     -0.3015737026D+00
    0.8815000000D+00      0.1032147265D+01
 S   1 1.0
    0.2257000000D+01      0.1000000000D+01
 S   1 1.0
    0.3041000000D+00      0.1000000000D+01
 S   1 1.0
    0.9158000000D-01      0.1000000000D+01
 P   3 1.0
    0.4388000000D+02      0.4190462069D-01
    0.9926000000D+01      0.2626978417D+00
    0.2930000000D+01      0.7977593735D+00
 P   1 1.0
    0.9132000000D+00      0.1000000000D+01
 P   1 1.0
    0.2672000000D+00      0.1000000000D+01
 P   1 1.0
    0.7361000000D-01      0.1000000000D+01
 D   1 1.0
    0.3107000000D+01      0.1000000000D+01
 D   1 1.0
    0.8550000000D+00      0.1000000000D+01
 D   1 1.0
    0.2920000000D+00      0.1000000000D+01
 F   1 1.0
    0.1917000000D+01      0.1000000000D+01
 F   1 1.0
    0.7240000000D+00      0.1000000000D+01

    3 0
 S   8 1.0
    0.1950000000D+05      0.5193715996D-03
    0.2923000000D+04      0.4018727387D-02
    0.6645000000D+03      0.2069291186D-01
    0.1875000000D+03      0.8093796861D-01
    0.6062000000D+02      0.2360620750D+00
    0.2142000000D+02      0.4434347595D+00
    0.7950000000D+01      0.3585036736D+00
    0.8815000000D+00     -0.8084577247D-02
 S   8 1.0
    0.1950000000D+05     -0.1995911530D-03
    0.2923000000D+04     -0.1555787449D-02
    0.6645000000D+03     -0.8046764688D-02
    0.1875000000D+03     -0.3255894654D-01
    0.6062000000D+02     -0.1017658994D+00
    0.2142000000D+02     -0.2388440797D+00
    0.7950000000D+01     -0.3015737026D+00
    0.8815000000D+00      0.1032147265D+01
 S   1 1.0
    0.2257000000D+01      0.1000000000D+01
 S   1 1.0
    0.3041000000D+00      0.1000000000D+01
 S   1 1.0
    0.9158000000D-01      0.1000000000D+01
 P   3 1.0
    0.4388000000D+02      0.4190462069D-01
    0.9926000000D+01      0.2626978417D+00
    0.2930000000D+01      0.7977593735D+00
 P   1 1.0
    0.9132000000D+00      0.1000000000D+01
 P   1 1.0
    0.2672000000D+00      0.1000000000D+01
 P   1 1.0
    0.7361000000D-01      0.1000000000D+01
 D   1 1.0
    0.3107000000D+01      0.1000000000D+01
 D   1 1.0
    0.8550000000D+00      0.1000000000D+01
 D   1 1.0
    0.2920000000D+00      0.1000000000D+01
 F   1 1.0
    0.1917000000D+01      0.1000000000D+01
 F   1 1.0
    0.7240000000D+00      0.1000000000D+01

    4 0
 S   1 1.0
    0.1000000000D+01      0.1000000000D+01


[MO]
 Ene=        -26.12580000
 Spin= Alpha
 Occup=        1.00000000
    1       -0.0000120100
    2       -0.0000200600
    3       -0.0000392600
    4        0.0001663300
    5        0.0001363400
    6        0.0000008700
    7        0.0000000000
    8       -0.0000015800
    9       -0.0000028700
   10       -0.0000000000
   11        0.0000071600
   12       -0.0000122200
   13       -0.0000000000
   14        0.0000164000
   15        0.0000304700
   16        0.0000000000
   17       -0.0000671400
   18       -0.0000062000
   19       -0.0000064100
   20       -0.0000015400
   21        0.0000000000
   22       -0.0000031200
   23       -0.0000000000
   24       -0.0000431200
   25       -0.0000423000
   26       -0.0000617500
   27       -0.0000000000
   28        0.0000121000
   29        0.0000000000
   30       -0.0000760700
   31       -0.0000778200
   32       -0.0000382900
   33        0.0000000000
   34       -0.0000227600
   35       -0.0000000000
   36        0.0000030600
   37        0.0000000000
   38       -0.0000020100
   39        0.0000013200
   40        0.0000000000
   41       -0.0000025300
   42       -0.0000016700
   43        0.0000000000
   44       -0.0000028000
   45        0.0000000000
   46        0.0000002100
   47        0.0000000000
   48       -0.0000072600
   49        0.0000002000
   50        0.0000000000
   51        0.0000003700
   52        0.0000067000
   53        0.0000000000
   54        0.0000009800
   55       -0.0000000000
   56       -0.0002355500
   57       -0.0002557900
   58       -0.0003763500
   59        0.0015944500
   60        0.0013900900
   61        0.0000719200
   62        0.0000000000
   63       -0.0000077700
   64       -0.0003631100
   65       -0.0000000000
   66        0.0000307100
   67       -0.0004815800
   68       -0.0000000000
   69        0.0000397600
   70        0.0004183500
   71        0.0000000000
   72       -0.0000230500
   73       -0.0000465700
   74       -0.0000322600
   75       -0.0000342100
   76       -0.0000000000
   77        0.0000000400
   78       -0.0000000000
   79       -0.0003991600
   80       -0.0004790500
   81       -0.0004717900
   82        0.0000000000
   83       -0.0000002700
   84        0.0000000000
   85       -0.0006476100
   86       -0.0005623100
   87       -0.0005747300
   88       -0.0000000000
   89        0.0000009800
   90       -0.0000000000
   91        0.0001554200
   92        0.0000000000
   93       -0.0000140800
   94        0.0000768900
   95        0.0000000000
   96       -0.0000062700
   97        0.0000767400
   98        0.0000000000
   99       -0.0000068000
  100        0.0000000000
  101        0.0002689800
  102        0.0000000000
  103       -0.0000219700
  104        0.0000585400
  105        0.0000000000
  106       -0.0000101000
  107        0.0000589700
  108        0.0000000000
  109       -0.0000087300
  110       -0.0000000000
  111        0.9707709100
  112       -0.0099299500
  113        0.0506675800
  114       -0.0182313300
  115       -0.0026196700
  116        0.0000114600
  117       -0.0000000000
  118        0.0000443200
  119       -0.0006979400
  120        0.0000000000
  121       -0.0000673300
  122       -0.0005607400
  123        0.0000000000
  124        0.0000342600
  125        0.0004704400
  126       -0.0000000000
  127       -0.0000516700
  128        0.0031969200
  129        0.0023556100
  130        0.0023526600
  131       -0.0000000000
  132        0.0000050200
  133        0.0000000000
  134        0.0082230200
  135        0.0085337300
  136        0.0085435400
  137        0.0000000000
  138       -0.0000046300
  139       -0.0000000000
  140        0.0035947100
  141        0.0033515100
  142        0.0033348000
  143       -0.0000000000
  144        0.0000070600
  145        0.0000000000
  146        0.0003277400
  147       -0.0000000000
  148        0.0000202100
  149        0.0001411500
  150       -0.0000000000
  151        0.0000094400
  152        0.0001410700
  153       -0.0000000000
  154        0.0000083500
  155        0.0000000000
  156        0.0003718000
  157       -0.0000000000
  158        0.0000090000
  159        0.0001530400
  160       -0.0000000000
  161        0.0000028900
  162        0.0001526700
  163       -0.0000000000
  164        0.0000053600
  165       -0.0000000000
  166        0.0000000000
 Ene=        -25.97330000
 Spin= Alpha
 Occup=        1.00000000
    1       -0.0000154900
    2       -0.0000191400
    3       -0.0000372900
    4        0.0001550500
    5        0.0001349900
    6       -0.0000005000
    7       -0.0000000000
    8       -0.0000007200
    9        0.0000013200
   10        0.0000000000
   11        0.0000037300
   12        0.0000109300
   13        0.0000000000
   14        0.0000136300
   15       -0.0000295500
   16        0.0000000000
   17       -0.0000667700
   18       -0.0000060000
   19       -0.0000061600
   20       -0.0000011700
   21       -0.0000000000
   22        0.0000031200
   23       -0.0000000000
   24       -0.0000401000
   25       -0.0000394400
   26       -0.0000593700
   27        0.0000000000
   28       -0.0000121100
   29        0.0000000000
   30       -0.0000739400
   31       -0.0000754100
   32       -0.0000349600
   33       -0.0000000000
   34        0.0000227200
   35       -0.0000000000
   36       -0.0000023700
   37       -0.0000000000
   38       -0.0000004100
   39       -0.0000010100
   40       -0.0000000000
   41       -0.0000018800
   42        0.0000019900
   43       -0.0000000000
   44       -0.0000021400
   45       -0.0000000000
   46        0.0000007000
   47       -0.0000000000
   48       -0.0000053000
   49        0.0000002000
   50       -0.0000000000
   51        0.0000013900
   52       -0.0000063000
   53       -0.0000000000
   54        0.0000019600
   55        0.0000000000
   56        0.9710510900
   57       -0.0101543500
   58        0.0499230900
   59       -0.0182167800
   60       -0.0026567300
   61        0.0000113000
   62       -0.0000000000
   63        0.0000990500
   64        0.0005290500
   65        0.0000000000
   66       -0.0001833500
   67        0.0004651200
   68        0.0000000000
   69        0.0000049300
   70       -0.0004925600
   71       -0.0000000000
   72       -0.0000454600
   73        0.0030133800
   74        0.0026685100
   75        0.0026648300
   76        0.0000000000
   77        0.0000015800
   78        0.0000000000
   79        0.0083992400
   80        0.0085080700
   81        0.0085171700
   82       -0.0000000000
   83        0.0000029500
   84       -0.0000000000
   85        0.0035093200
   86        0.0033837800
   87        0.0033677100
   88        0.0000000000
   89       -0.0000067100
   90        0.0000000000
   91       -0.0002458400
   92       -0.0000000000
   93        0.0000623500
   94       -0.0001081100
   95       -0.0000000000
   96        0.0000281700
   97       -0.0001081100
   98       -0.0000000000
   99        0.0000271600
  100       -0.0000000000
  101       -0.0002855100
  102       -0.0000000000
  103        0.0000526400
  104       -0.0001148900
  105       -0.0000000000
  106        0.0000221400
  107       -0.0001145700
  108       -0.0000000000
  109        0.0000248000
  110        0.0000000000
  111       -0.0000205600
  112       -0.0002292300
  113       -0.0003391200
  114        0.0014581300
  115        0.0014080900
  116       -0.0000495700
  117        0.0000000000
  118       -0.0000085000
  119        0.0002616400
  120       -0.0000000000
  121        0.0000337000
  122        0.0004126900
  123       -0.0000000000
  124        0.0000431300
  125       -0.0004236700
  126        0.0000000000
  127       -0.0000253200
  128       -0.0000442100
  129       -0.0000328800
  130       -0.0000348500
  131        0.0000000000
  132       -0.0000001300
  133       -0.0000000000
  134       -0.0003606200
  135       -0.0004414600
  136       -0.0004341400
  137       -0.0000000000
  138        0.0000004600
  139        0.0000000000
  140       -0.0006097200
  141       -0.0005231500
  142       -0.0005356600
  143        0.0000000000
  144       -0.0000016400
  145       -0.0000000000
  146       -0.0001254800
  147        0.0000000000
  148       -0.0000154900
  149       -0.0000528700
  150        0.0000000000
  151       -0.0000067000
  152       -0.0000527300
  153        0.0000000000
  154       -0.0000074300
  155       -0.0000000000
  156       -0.0002036200
  157        0.0000000000
  158       -0.0000236900
  159       -0.0000539500
  160        0.0000000000
  161       -0.0000113700
  162       -0.0000543500
  163        0.0000000000
  164       -0.0000095100
  165        0.0000000000
  166        0.0000000000
 Ene=        -25.93290000
 Spin= Alpha
 Occup=        1.00000000
    1        0.9711023300
    2       -0.0106084800
    3        0.0490548800
    4       -0.0165572100
    5       -0.0013194600
    6       -0.0000257700
    7       -0.0000000000
    8       -0.0001387600
    9        0.0000557300
   10        0.0000000100
   11        0.0002606800
   12        0.0000138700
   13        0.0000000000
   14       -0.0000116600
   15       -0.0000026800
   16       -0.0000000000
   17        0.0000732500
   18        0.0028387100
   19        0.0028388300
   20        0.0028341600
   21       -0.0000000000
   22       -0.0000003300
   23       -0.0000000000
   24        0.0080627400
   25        0.0080615900
   26        0.0080761500
   27        0.0000000000
   28       -0.0000002200
   29        0.0000000000
   30        0.0028440400
   31        0.0028459000
   32        0.0028204700
   33       -0.0000000000
   34        0.0000002400
   35       -0.0000000000
   36       -0.0000204200
   37       -0.0000000000
   38       -0.0000891100
   39       -0.0000091300
   40       -0.0000000000
   41       -0.0000390600
   42       -0.0000091700
   43       -0.0000000000
   44       -0.0000388800
   45       -0.0000000000
   46       -0.0000207900
   47       -0.0000000000
   48       -0.0000718400
   49       -0.0000093000
   50       -0.0000000000
   51       -0.0000335800
   52       -0.0000093600
   53       -0.0000000000
   54       -0.0000339900
   55        0.0000000000
   56       -0.0000054200
   57       -0.0000185000
   58       -0.0000356200
   59        0.0001547400
   60        0.0001062200
   61       -0.0000018200
   62        0.0000000000
   63        0.0000025100
   64        0.0000078300
   65       -0.0000000000
   66       -0.0000114900
   67        0.0000089900
   68       -0.0000000000
   69       -0.0000190400
   70        0.0000021500
   71        0.0000000000
   72        0.0000491900
   73       -0.0000053600
   74       -0.0000060100
   75       -0.0000014600
   76        0.0000000000
   77        0.0000002400
   78        0.0000000000
   79       -0.0000404000
   80       -0.0000379400
   81       -0.0000560200
   82       -0.0000000000
   83       -0.0000011700
   84       -0.0000000000
   85       -0.0000643100
   86       -0.0000721800
   87       -0.0000365100
   88        0.0000000000
   89        0.0000026500
   90        0.0000000000
   91       -0.0000031500
   92        0.0000000000
   93        0.0000039000
   94       -0.0000016800
   95        0.0000000000
   96        0.0000032500
   97       -0.0000017000
   98        0.0000000000
   99        0.0000037100
  100        0.0000000000
  101       -0.0000054500
  102        0.0000000000
  103        0.0000094600
  104       -0.0000015300
  105        0.0000000000
  106        0.0000009300
  107       -0.0000016300
  108        0.0000000000
  109       -0.0000001200
  110       -0.0000000000
  111       -0.0000094000
  112       -0.0000184100
  113       -0.0000358800
  114        0.0001548500
  115        0.0001061100
  116        0.0000018800
  117        0.0000000000
  118        0.0000025700
  119       -0.0000081600
  120       -0.0000000000
  121       -0.0000115900
  122       -0.0000088200
  123       -0.0000000000
  124       -0.0000192000
  125       -0.0000016300
  126        0.0000000000
  127        0.0000499600
  128       -0.0000054000
  129       -0.0000060500
  130       -0.0000014600
  131       -0.0000000000
  132       -0.0000002500
  133        0.0000000000
  134       -0.0000404300
  135       -0.0000380100
  136       -0.0000562100
  137        0.0000000000
  138        0.0000011900
  139       -0.0000000000
  140       -0.0000648800
  141       -0.0000723300
  142       -0.0000363700
  143       -0.0000000000
  144       -0.0000027100
  145        0.0000000000
  146        0.0000032500
  147        0.0000000000
  148        0.0000039500
  149        0.0000017600
  150        0.0000000000
  151        0.0000032800
  152        0.0000017700
  153        0.0000000000
  154        0.0000037500
  155       -0.0000000000
  156        0.0000056700
  157        0.0000000000
  158        0.0000095700
  159        0.0000015300
  160        0.0000000000
  161        0.0000009600
  162        0.0000016400
  163        0.0000000000
  164       -0.0000001000
  165        0.0000000000
  166        0.0000000000
 Ene=         -1.39894000
 Spin= Alpha
 Occup=        1.00000000
    1       -0.0000444000
    2       -0.0002148200
    3       -0.0001904900
    4        0.0004240500
    5        0.0009027500
    6        0.0000015100
    7        0.0000000000
    8        0.0000216700
    9       -0.0000187000
   10        0.0000000000
   11        0.0000436000
   12       -0.0000956800
   13        0.0000000000
   14        0.0000426700
   15        0.0002151100
   16       -0.0000000000
   17       -0.0004796600
   18       -0.0000164200
   19       -0.0000176100
   20       -0.0000055800
   21        0.0000000000
   22       -0.0000062800
   23        0.0000000000
   24       -0.0001596800
   25       -0.0001521900
   26       -0.0002344200
   27        0.0000000000
   28        0.0000386200
   29       -0.0000000000
   30       -0.0003545800
   31       -0.0003747600
   32       -0.0001447500
   33        0.0000000000
   34       -0.0000987100
   35       -0.0000000000
   36        0.0000119800
   37       -0.0000000000
   38        0.0000001600
   39        0.0000053600
   40       -0.0000000000
   41       -0.0000050300
   42       -0.0000009400
   43       -0.0000000000
   44       -0.0000064700
   45       -0.0000000000
   46        0.0000179200
   47       -0.0000000000
   48       -0.0000062200
   49        0.0000079800
   50       -0.0000000000
   51        0.0000120300
   52        0.0000262100
   53       -0.0000000000
   54        0.0000162600
   55       -0.0000000000
   56        0.0014877900
   57       -0.0883507800
   58       -0.0263181900
   59       -0.0529926100
   60        0.0033933800
   61       -0.0108619200
   62        0.0000000000
   63       -0.0002261200
   64       -0.0128543100
   65        0.0000000000
   66       -0.0002858700
   67       -0.0035883200
   68        0.0000000100
   69       -0.0003332400
   70        0.0021913500
   71        0.0000000000
   72       -0.0002241100
   73       -0.0010525300
   74       -0.0000032900
   75       -0.0000133300
   76       -0.0000000000
   77       -0.0000162000
   78       -0.0000000000
   79       -0.0028941900
   80        0.0001513100
   81        0.0001473800
   82        0.0000000000
   83       -0.0000322500
   84       -0.0000000000
   85        0.0000559800
   86       -0.0006201800
   87       -0.0008598800
   88        0.0000000000
   89       -0.0000816500
   90        0.0000000000
   91       -0.0004377600
   92        0.0000000000
   93       -0.0000169700
   94        0.0000225800
   95        0.0000000000
   96       -0.0000181200
   97        0.0000296800
   98        0.0000000000
   99       -0.0000112000
  100       -0.0000000000
  101       -0.0008490300
  102        0.0000000000
  103       -0.0000900500
  104       -0.0000421100
  105        0.0000000000
  106       -0.0000166200
  107       -0.0000818700
  108        0.0000000000
  109       -0.0000223300
  110        0.0000000000
  111        0.0057253300
  112       -0.5673175800
  113       -0.1636268700
  114       -0.3856393000
  115       -0.0273015100
  116        0.0111881700
  117        0.0000000100
  118       -0.0008995400
  119        0.0134692200
  120        0.0000000200
  121       -0.0011881500
  122       -0.0026426600
  123        0.0000000200
  124       -0.0016052800
  125        0.0014790600
  126        0.0000000000
  127       -0.0004214100
  128       -0.0071734500
  129        0.0017080200
  130        0.0016919900
  131        0.0000000000
  132       -0.0000258500
  133       -0.0000000000
  134       -0.0037253600
  135        0.0123237900
  136        0.0121873700
  137        0.0000000000
  138        0.0000409200
  139        0.0000000000
  140        0.0142719700
  141        0.0129966400
  142        0.0124918000
  143       -0.0000000000
  144        0.0004243200
  145        0.0000000000
  146       -0.0003205500
  147        0.0000000000
  148       -0.0000647000
  149       -0.0000722200
  150        0.0000000000
  151       -0.0000551200
  152       -0.0000867700
  153        0.0000000000
  154       -0.0000342900
  155       -0.0000000000
  156       -0.0021260800
  157        0.0000000100
  158       -0.0002823600
  159       -0.0005757600
  160        0.0000000100
  161       -0.0001345500
  162       -0.0004632400
  163        0.0000000100
  164       -0.0000882300
  165       -0.0000000000
  166        0.0000000000
 Ene=         -1.23126000
 Spin= Alpha
 Occup=        1.00000000
    1       -0.0000085100
    2        0.0007221000
    3        0.0002520300
    4        0.0004101900
    5       -0.0003809800
    6       -0.0000067600
    7       -0.0000000000
    8       -0.0000364900
    9       -0.0000198100
   10       -0.0000000000
   11       -0.0000289700
   12       -0.0000665600
   13       -0.0000000000
   14        0.0000922300
   15        0.0002288500
   16        0.0000000000
   17        0.0002049300
   18        0.0000102500
   19        0.0000107200
   20        0.0000049900
   21       -0.0000000000
   22       -0.0000068100
   23       -0.0000000000
   24        0.0000438200
   25        0.0000404300
   26        0.0000876500
   27        0.0000000000
   28        0.0000451100
   29        0.0000000000
   30        0.0001212500
   31        0.0001313200
   32       -0.0000076500
   33        0.0000000000
   34       -0.0001193400
   35        0.0000000000
   36        0.0000086000
   37       -0.0000000000
   38       -0.0000134600
   39        0.0000038700
   40       -0.0000000000
   41       -0.0000025300
   42       -0.0000041300
   43       -0.0000000000
   44       -0.0000016700
   45        0.0000000000
   46        0.0000016500
   47       -0.0000000000
   48       -0.0000414100
   49        0.0000006700
   50       -0.0000000000
   51       -0.0000285800
   52        0.0000237800
   53       -0.0000000000
   54       -0.0000311100
   55       -0.0000000000
   56       -0.0082260800
   57        0.5535584400
   58        0.1593435100
   59        0.3926524900
   60        0.0362504200
   61        0.0084773100
   62       -0.0000000100
   63        0.0013518400
   64        0.0108431500
   65       -0.0000000200
   66        0.0019581000
   67        0.0021476500
   68       -0.0000000400
   69        0.0034732000
   70        0.0024426000
   71       -0.0000000000
   72        0.0005398400
   73        0.0035272800
   74        0.0003448800
   75        0.0003708500
   76        0.0000000000
   77        0.0000381200
   78        0.0000000000
   79       -0.0008215100
   80       -0.0066888600
   81       -0.0064537800
   82        0.0000000000
   83        0.0001054500
   84        0.0000000000
   85       -0.0067085900
   86       -0.0074697600
   87       -0.0065262400
   88       -0.0000000000
   89        0.0003317700
   90       -0.0000000000
   91       -0.0002553300
   92       -0.0000000100
   93        0.0000185600
   94        0.0000593100
   95       -0.0000000000
   96        0.0000281300
   97        0.0000495700
   98       -0.0000000000
   99        0.0000200800
  100        0.0000000000
  101       -0.0001998400
  102       -0.0000000200
  103        0.0002047300
  104       -0.0002901400
  105       -0.0000000100
  106        0.0000194800
  107       -0.0002130200
  108       -0.0000000100
  109        0.0000113100
  110       -0.0000000000
  111        0.0004712900
  112       -0.1111464300
  113       -0.0314230800
  114       -0.0848015500
  115       -0.0142039200
  116       -0.0161010700
  117        0.0000000000
  118       -0.0001327600
  119       -0.0175036200
  120        0.0000000000
  121       -0.0002121600
  122       -0.0068207800
  123        0.0000000000
  124       -0.0005197900
  125        0.0026237000
  126        0.0000000000
  127        0.0000027300
  128       -0.0007856900
  129        0.0002795700
  130        0.0002812300
  131        0.0000000000
  132       -0.0000157200
  133       -0.0000000000
  134        0.0022728100
  135        0.0026604100
  136        0.0026116400
  137        0.0000000000
  138       -0.0000257400
  139        0.0000000000
  140        0.0033037700
  141        0.0035152600
  142        0.0034827300
  143        0.0000000000
  144        0.0001007800
  145        0.0000000000
  146       -0.0011930700
  147        0.0000000000
  148       -0.0000007100
  149       -0.0001694000
  150        0.0000000000
  151        0.0000043900
  152       -0.0001701700
  153        0.0000000000
  154        0.0000001600
  155       -0.0000000000
  156       -0.0029487400
  157        0.0000000000
  158        0.0000078000
  159       -0.0001901100
  160        0.0000000000
  161       -0.0000204300
  162       -0.0001850600
  163        0.0000000000
  164        0.0000061300
  165        0.0000000000
  166        0.0000000000
 Ene=         -1.18656000
 Spin= Alpha
 Occup=        1.00000000
    1       -0.0094342000
    2        0.5508378200
    3        0.1579066700
    4        0.3981179900
    5        0.0342578300
    6       -0.0002621800
    7       -0.0000000600
    8       -0.0019052700
    9       -0.0004040100
   10       -0.0000000900
   11       -0.0026713200
   12       -0.0008537200
   13       -0.0000001100
   14       -0.0049922800
   15       -0.0000799200
   16       -0.0000000100
   17       -0.0008068300
   18        0.0014696600
   19        0.0014697300
   20        0.0014928200
   21       -0.0000000000
   22        0.0000041500
   23       -0.0000000000
   24       -0.0024937600
   25       -0.0025003900
   26       -0.0021997200
   27       -0.0000000000
   28        0.0000504900
   29       -0.0000000000
   30       -0.0020219100
   31       -0.0020110200
   32       -0.0009864600
   33        0.0000000000
   34        0.0002048700
   35        0.0000000100
   36       -0.0000018300
   37       -0.0000000100
   38       -0.0000852600
   39       -0.0000008100
   40       -0.0000000100
   41       -0.0000475800
   42        0.0000050000
   43       -0.0000000100
   44       -0.0000460900
   45       -0.0000000000
   46        0.0000075800
   47       -0.0000000400
   48       -0.0004172000
   49        0.0000035100
   50       -0.0000000200
   51       -0.0001152700
   52       -0.0000365500
   53       -0.0000000200
   54       -0.0001206700
   55       -0.0000000000
   56        0.0000216600
   57       -0.0008576300
   58       -0.0001887500
   59       -0.0007567600
   60       -0.0005833400
   61       -0.0000060200
   62        0.0000000000
   63        0.0000467400
   64       -0.0000263400
   65       -0.0000000000
   66        0.0000351600
   67       -0.0000849900
   68       -0.0000000000
   69       -0.0001011100
   70        0.0000390200
   71        0.0000000000
   72       -0.0002758300
   73        0.0000059700
   74        0.0000108100
   75        0.0000004800
   76       -0.0000000000
   77       -0.0000001800
   78       -0.0000000000
   79        0.0000520200
   80        0.0000646400
   81        0.0001428700
   82       -0.0000000000
   83        0.0000057500
   84       -0.0000000000
   85        0.0001974800
   86        0.0002101800
   87       -0.0000174000
   88        0.0000000000
   89       -0.0000138300
   90        0.0000000000
   91        0.0000082500
   92        0.0000000000
   93        0.0000182900
   94        0.0000032300
   95        0.0000000000
   96        0.0000012900
   97        0.0000050300
   98        0.0000000000
   99        0.0000010900
  100        0.0000000000
  101        0.0000301100
  102        0.0000000000
  103        0.0000423100
  104        0.0000150600
  105        0.0000000000
  106        0.0000410400
  107        0.0000103600
  108        0.0000000000
  109        0.0000396300
  110       -0.0000000000
  111        0.0000148000
  112       -0.0000588000
  113        0.0000475300
  114       -0.0002313900
  115       -0.0005525200
  116        0.0000177200
  117        0.0000000000
  118        0.0000518800
  119        0.0000353700
  120       -0.0000000000
  121        0.0000478300
  122        0.0000926700
  123       -0.0000000000
  124       -0.0000692700