 Entering Gaussian System, Link 0=g16
 Initial command:
 /opt/g16/l1.exe "/home/pohl/scratches/g16/Gau-1845069.inp" -scrdir="/home/pohl/scratches/g16/"
 Entering Link 1 = /opt/g16/l1.exe PID=   1845071.
  
 Copyright (c) 1988-2017, Gaussian, Inc.  All Rights Reserved.
  
 This is part of the Gaussian(R) 16 program.  It is based on
 the Gaussian(R) 09 system (copyright 2009, Gaussian, Inc.),
 the Gaussian(R) 03 system (copyright 2003, Gaussian, Inc.),
 the Gaussian(R) 98 system (copyright 1998, Gaussian, Inc.),
 the Gaussian(R) 94 system (copyright 1995, Gaussian, Inc.),
 the Gaussian 92(TM) system (copyright 1992, Gaussian, Inc.),
 the Gaussian 90(TM) system (copyright 1990, Gaussian, Inc.),
 the Gaussian 88(TM) system (copyright 1988, Gaussian, Inc.),
 the Gaussian 86(TM) system (copyright 1986, Carnegie Mellon
 University), and the Gaussian 82(TM) system (copyright 1983,
 Carnegie Mellon University). Gaussian is a federally registered
 trademark of Gaussian, Inc.
  
 This software contains proprietary and confidential information,
 including trade secrets, belonging to Gaussian, Inc.
  
 This software is provided under written license and may be
 used, copied, transmitted, or stored only in accord with that
 written license.
  
 The following legend is applicable only to US Government
 contracts under FAR:
  
                    RESTRICTED RIGHTS LEGEND
  
 Use, reproduction and disclosure by the US Government is
 subject to restrictions as set forth in subparagraphs (a)
 and (c) of the Commercial Computer Software - Restricted
 Rights clause in FAR 52.227-19.
  
 Gaussian, Inc.
 340 Quinnipiac St., Bldg. 40, Wallingford CT 06492
  
  
 ---------------------------------------------------------------
 Warning -- This program may not be used in any manner that
 competes with the business of Gaussian, Inc. or will provide
 assistance to any competitor of Gaussian, Inc.  The licensee
 of this program is prohibited from giving any competitor of
 Gaussian, Inc. access to this program.  By using this program,
 the user acknowledges that Gaussian, Inc. is engaged in the
 business of creating and licensing software in the field of
 computational chemistry and represents and warrants to the
 licensee that it is not a competitor of Gaussian, Inc. and that
 it will not use this program in any manner prohibited above.
 ---------------------------------------------------------------
  

 Cite this work as:
 Gaussian 16, Revision B.01,
 M. J. Frisch, G. W. Trucks, H. B. Schlegel, G. E. Scuseria, 
 M. A. Robb, J. R. Cheeseman, G. Scalmani, V. Barone, 
 G. A. Petersson, H. Nakatsuji, X. Li, M. Caricato, A. V. Marenich, 
 J. Bloino, B. G. Janesko, R. Gomperts, B. Mennucci, H. P. Hratchian, 
 J. V. Ortiz, A. F. Izmaylov, J. L. Sonnenberg, D. Williams-Young, 
 F. Ding, F. Lipparini, F. Egidi, J. Goings, B. Peng, A. Petrone, 
 T. Henderson, D. Ranasinghe, V. G. Zakrzewski, J. Gao, N. Rega, 
 G. Zheng, W. Liang, M. Hada, M. Ehara, K. Toyota, R. Fukuda, 
 J. Hasegawa, M. Ishida, T. Nakajima, Y. Honda, O. Kitao, H. Nakai, 
 T. Vreven, K. Throssell, J. A. Montgomery, Jr., J. E. Peralta, 
 F. Ogliaro, M. J. Bearpark, J. J. Heyd, E. N. Brothers, K. N. Kudin, 
 V. N. Staroverov, T. A. Keith, R. Kobayashi, J. Normand, 
 K. Raghavachari, A. P. Rendell, J. C. Burant, S. S. Iyengar, 
 J. Tomasi, M. Cossi, J. M. Millam, M. Klene, C. Adamo, R. Cammi, 
 J. W. Ochterski, R. L. Martin, K. Morokuma, O. Farkas, 
 J. B. Foresman, and D. J. Fox, Gaussian, Inc., Wallingford CT, 2016.
 
 ******************************************
 Gaussian 16:  EM64L-G16RevB.01 20-Dec-2017
                22-May-2025 
 ******************************************
 %mem=30GB
 %nprocshared=10
 Will use up to   10 processors via shared memory.
 ---------------------
 # CCSD/aug-cc-pVTZ SP
 ---------------------
 1/38=1,172=1/1;
 2/12=2,17=6,18=5,40=1/2;
 3/5=16,6=1,7=10,11=9,25=1,30=1/1,2,3;
 4//1;
 5/5=2,38=5/2;
 8/6=4,9=120000,10=1/1,4;
 9/5=7/13;
 6/7=2,8=2,9=2,10=2/1;
 99/5=1,9=1/99;
 --------------------------------------------------
 Single-point energy of X- + Y- at fixed distance R
 --------------------------------------------------
 Symbolic Z-matrix:
 Charge = -2 Multiplicity = 1
 F                     0.        0.        3. 
 F                    -1.702     0.        0. 
 Li                    0.        0.        0. 
 F                     1.702     0.        0. 
 
                          Input orientation:                          
 ---------------------------------------------------------------------
 Center     Atomic      Atomic             Coordinates (Angstroms)
 Number     Number       Type             X           Y           Z
 ---------------------------------------------------------------------
      1          9           0        0.000000    0.000000    3.000000
      2          9           0       -1.702000    0.000000    0.000000
      3          3           0        0.000000    0.000000    0.000000
      4          9           0        1.702000    0.000000    0.000000
 ---------------------------------------------------------------------
                    Distance matrix (angstroms):
                    1          2          3          4
     1  F    0.000000
     2  F    3.449174   0.000000
     3  Li   3.000000   1.702000   0.000000
     4  F    3.449174   3.404000   1.702000   0.000000
 Stoichiometry    F3Li(2-)
 Framework group  C2V[C2(LiF),SGV(F2)]
 Deg. of freedom     3
 Full point group                 C2V     NOp   4
 Largest Abelian subgroup         C2V     NOp   4
 Largest concise Abelian subgroup C2      NOp   2
                         Standard orientation:                         
 ---------------------------------------------------------------------
 Center     Atomic      Atomic             Coordinates (Angstroms)
 Number     Number       Type             X           Y           Z
 ---------------------------------------------------------------------
      1          9           0        0.000000    0.000000    2.100000
      2          9           0        0.000000    1.702000   -0.900000
      3          3           0        0.000000    0.000000   -0.900000
      4          9           0       -0.000000   -1.702000   -0.900000
 ---------------------------------------------------------------------
 Rotational constants (GHZ):           4.5914620           4.2031755           2.1943736
 Standard basis: Aug-CC-pVTZ (5D, 7F)
 There are    85 symmetry adapted cartesian basis functions of A1  symmetry.
 There are    28 symmetry adapted cartesian basis functions of A2  symmetry.
 There are    44 symmetry adapted cartesian basis functions of B1  symmetry.
 There are    63 symmetry adapted cartesian basis functions of B2  symmetry.
 There are    68 symmetry adapted basis functions of A1  symmetry.
 There are    26 symmetry adapted basis functions of A2  symmetry.
 There are    38 symmetry adapted basis functions of B1  symmetry.
 There are    52 symmetry adapted basis functions of B2  symmetry.
   184 basis functions,   290 primitive gaussians,   220 cartesian basis functions
    16 alpha electrons       16 beta electrons
       nuclear repulsion energy        58.9983247731 Hartrees.
 NAtoms=    4 NActive=    4 NUniq=    3 SFac= 1.78D+00 NAtFMM=   60 NAOKFM=F Big=F
 Integral buffers will be    131072 words long.
 Raffenetti 1 integral format.
 Two-electron integral symmetry is turned on.
 One-electron integrals computed using PRISM.
 NBasis=   184 RedAO= T EigKep=  2.37D-04  NBF=    68    26    38    52
 NBsUse=   184 1.00D-06 EigRej= -1.00D+00 NBFU=    68    26    38    52
 ExpMin= 7.59D-03 ExpMax= 1.95D+04 ExpMxC= 6.65D+02 IAcc=3 IRadAn=         5 AccDes= 0.00D+00
 Harris functional with IExCor=  205 and IRadAn=       5 diagonalized for initial guess.
 HarFok:  IExCor=  205 AccDes= 0.00D+00 IRadAn=         5 IDoV= 1 UseB2=F ITyADJ=14
 ICtDFT=  3500011 ScaDFX=  1.000000  1.000000  1.000000  1.000000
 FoFCou: FMM=F IPFlag=           0 FMFlag=      100000 FMFlg1=           0
         NFxFlg=           0 DoJE=T BraDBF=F KetDBF=T FulRan=T
         wScrn=  0.000000 ICntrl=       500 IOpCl=  0 I1Cent=   200000004 NGrid=           0
         NMat0=    1 NMatS0=      1 NMatT0=    0 NMatD0=    1 NMtDS0=    0 NMtDT0=    0
 Petite list used in FoFCou.
 Initial guess orbital symmetries:
       Occupied  (A1) (B2) (A1) (A1) (B2) (A1) (A1) (B2) (A1) (A1)
                 (B1) (B2) (A2) (A1) (B1) (B2)
       Virtual   (A1) (B1) (A1) (B2) (A1) (B1) (A1) (B2) (B1) (A1)
                 (B2) (A2) (A1) (A1) (B1) (A1) (B2) (A1) (B2) (B1)
                 (B1) (A1) (B2) (B1) (A2) (B2) (A1) (A2) (A1) (B2)
                 (A1) (B1) (A2) (A1) (B2) (B1) (B2) (A1) (A1) (B1)
                 (A1) (A1) (B2) (B2) (A2) (B1) (B2) (A1) (A2) (A1)
                 (B1) (B2) (A2) (A1) (A1) (B2) (A1) (B1) (B2) (A1)
                 (B1) (B1) (B2) (A1) (A2) (B2) (B1) (A1) (B1) (A1)
                 (A2) (B2) (B2) (A1) (A1) (B1) (A2) (B2) (A1) (A1)
                 (B2) (B2) (A1) (A1) (A1) (B1) (A2) (A1) (B1) (A1)
                 (B2) (B2) (A2) (A2) (B1) (A2) (B2) (B2) (B1) (A1)
                 (B1) (B2) (A1) (A2) (B2) (A1) (B1) (A1) (A1) (B2)
                 (B1) (A1) (B1) (A2) (A1) (B2) (A2) (B2) (B2) (A1)
                 (B1) (B2) (A1) (A2) (B1) (A1) (B2) (A1) (B2) (A2)
                 (B2) (B1) (A1) (A1) (B1) (B2) (B1) (A2) (B2) (A1)
                 (B1) (A1) (B1) (A1) (A2) (A2) (B2) (A1) (B2) (B2)
                 (B1) (A1) (A2) (A1) (B1) (B2) (A2) (A1) (B1) (B2)
                 (B2) (A1) (A2) (A1) (B2) (A1) (B2) (A1)
 The electronic state of the initial guess is 1-A1.
 Keep R1 ints in memory in symmetry-blocked form, NReq=181483703.
 Requested convergence on RMS density matrix=1.00D-08 within 128 cycles.
 Requested convergence on MAX density matrix=1.00D-06.
 Requested convergence on             energy=1.00D-06.
 No special actions if energy rises.
 SCF Done:  E(RHF) =  -305.866712735     A.U. after   11 cycles
            NFock= 11  Conv=0.44D-08     -V/T= 2.0001
 ExpMin= 7.59D-03 ExpMax= 1.95D+04 ExpMxC= 6.65D+02 IAcc=3 IRadAn=         5 AccDes= 0.00D+00
 HarFok:  IExCor=  205 AccDes= 0.00D+00 IRadAn=         5 IDoV=-2 UseB2=F ITyADJ=14
 ICtDFT= 12500011 ScaDFX=  1.000000  1.000000  1.000000  1.000000
 Range of M.O.s used for correlation:     5   184
 NBasis=   184 NAE=    16 NBE=    16 NFC=     4 NFV=     0
 NROrb=    180 NOA=    12 NOB=    12 NVA=   168 NVB=   168

 **** Warning!!: The largest alpha MO coefficient is  0.21932895D+02

 Semi-Direct transformation.
 ModeAB=           4 MOrb=            12 LenV=    4025580647
 LASXX=      8444399 LTotXX=     8444399 LenRXX=    17045430
 LTotAB=     8601031 MaxLAS=    32564160 LenRXY=           0
 NonZer=    25489829 LenScr=    39014400 LnRSAI=    32564160
 LnScr1=    49610752 LExtra=           0 Total=    138234742
 MaxDsk=          -1 SrtSym=           T ITran=            4
 JobTyp=0 Pass  1:  I=   1 to  12.
 (rs|ai) integrals will be sorted in core.
 Spin components of T(2) and E(2):
     alpha-alpha T2 =       0.2617208405D-01 E2=     -0.1156630687D+00
     alpha-beta  T2 =       0.1337158294D+00 E2=     -0.6438095436D+00
     beta-beta   T2 =       0.2617208405D-01 E2=     -0.1156630687D+00
 ANorm=    0.1089063817D+01
 E2 =    -0.8751356810D+00 EUMP2 =    -0.30674184841634D+03
 Keep R2 and R3 ints in memory in symmetry-blocked form, NReq=181490657.
 CIDS: In Core Option IDoMem=           1.
 Iterations=  50 Convergence= 0.100D-06
 Produce multiple copies of IABC intergrals
 Iteration Nr.   1
 **********************
 DD1Dir will call FoFMem   1 times, MxPair=       156
 NAB=    78 NAA=     0 NBB=     0.
 MP4(R+Q)=  0.92654151D-02
 E3=        0.28360991D-01        EUMP3=      -0.30671348742D+03
 E4(DQ)=   -0.77715219D-02        UMP4(DQ)=   -0.30672125895D+03
 E4(SDQ)=  -0.20975221D-01        UMP4(SDQ)=  -0.30673446265D+03
 DE(Corr)= -0.83635266     E(Corr)=     -306.70306539    
 NORM(A)=   0.10828162D+01
 Iteration Nr.   2
 **********************
 DD1Dir will call FoFMem   1 times, MxPair=       156
 NAB=    78 NAA=     0 NBB=     0.
 DE(Corr)= -0.86157462     E(CORR)=     -306.72828736     Delta=-2.52D-02
 NORM(A)=   0.10885813D+01
 Iteration Nr.   3
 **********************
 DD1Dir will call FoFMem   1 times, MxPair=       156
 NAB=    78 NAA=     0 NBB=     0.
 DE(Corr)= -0.85769401     E(CORR)=     -306.72440675     Delta= 3.88D-03
 NORM(A)=   0.10916026D+01
 Iteration Nr.   4
 **********************
 DD1Dir will call FoFMem   1 times, MxPair=       156
 NAB=    78 NAA=     0 NBB=     0.
 DE(Corr)= -0.85992126     E(CORR)=     -306.72663399     Delta=-2.23D-03
 NORM(A)=   0.10926983D+01
 Iteration Nr.   5
 **********************
 DD1Dir will call FoFMem   1 times, MxPair=       156
 NAB=    78 NAA=     0 NBB=     0.
 DE(Corr)= -0.86017801     E(CORR)=     -306.72689075     Delta=-2.57D-04
 NORM(A)=   0.10932180D+01
 Iteration Nr.   6
 **********************
 DD1Dir will call FoFMem   1 times, MxPair=       156
 NAB=    78 NAA=     0 NBB=     0.
 DE(Corr)= -0.86021378     E(CORR)=     -306.72692651     Delta=-3.58D-05
 NORM(A)=   0.10934442D+01
 Iteration Nr.   7
 **********************
 DD1Dir will call FoFMem   1 times, MxPair=       156
 NAB=    78 NAA=     0 NBB=     0.
 DE(Corr)= -0.86021231     E(CORR)=     -306.72692505     Delta= 1.46D-06
 NORM(A)=   0.10935596D+01
 Iteration Nr.   8
 **********************
 DD1Dir will call FoFMem   1 times, MxPair=       156
 NAB=    78 NAA=     0 NBB=     0.
 DE(Corr)= -0.86024373     E(CORR)=     -306.72695647     Delta=-3.14D-05
 NORM(A)=   0.10936236D+01
 Iteration Nr.   9
 **********************
 DD1Dir will call FoFMem   1 times, MxPair=       156
 NAB=    78 NAA=     0 NBB=     0.
 DE(Corr)= -0.86022356     E(CORR)=     -306.72693629     Delta= 2.02D-05
 NORM(A)=   0.10936784D+01
 Iteration Nr.  10
 **********************
 DD1Dir will call FoFMem   1 times, MxPair=       156
 NAB=    78 NAA=     0 NBB=     0.
 DE(Corr)= -0.86022406     E(CORR)=     -306.72693679     Delta=-4.96D-07
 NORM(A)=   0.10936829D+01
 Iteration Nr.  11
 **********************
 DD1Dir will call FoFMem   1 times, MxPair=       156
 NAB=    78 NAA=     0 NBB=     0.
 DE(Corr)= -0.86022490     E(CORR)=     -306.72693764     Delta=-8.50D-07
 NORM(A)=   0.10936796D+01
 Iteration Nr.  12
 **********************
 DD1Dir will call FoFMem   1 times, MxPair=       156
 NAB=    78 NAA=     0 NBB=     0.
 DE(Corr)= -0.86022016     E(CORR)=     -306.72693290     Delta= 4.74D-06
 NORM(A)=   0.10936790D+01
 Iteration Nr.  13
 **********************
 DD1Dir will call FoFMem   1 times, MxPair=       156
 NAB=    78 NAA=     0 NBB=     0.
 DE(Corr)= -0.86021885     E(CORR)=     -306.72693158     Delta= 1.31D-06
 NORM(A)=   0.10936734D+01
 Iteration Nr.  14
 **********************
 DD1Dir will call FoFMem   1 times, MxPair=       156
 NAB=    78 NAA=     0 NBB=     0.
 DE(Corr)= -0.86021855     E(CORR)=     -306.72693128     Delta= 3.01D-07
 NORM(A)=   0.10936700D+01
 Iteration Nr.  15
 **********************
 DD1Dir will call FoFMem   1 times, MxPair=       156
 NAB=    78 NAA=     0 NBB=     0.
 DE(Corr)= -0.86021788     E(CORR)=     -306.72693061     Delta= 6.66D-07
 NORM(A)=   0.10936677D+01
 Iteration Nr.  16
 **********************
 DD1Dir will call FoFMem   1 times, MxPair=       156
 NAB=    78 NAA=     0 NBB=     0.
 DE(Corr)= -0.86021773     E(CORR)=     -306.72693046     Delta= 1.53D-07
 NORM(A)=   0.10936658D+01
 Iteration Nr.  17
 **********************
 DD1Dir will call FoFMem   1 times, MxPair=       156
 NAB=    78 NAA=     0 NBB=     0.
 DE(Corr)= -0.86021775     E(CORR)=     -306.72693048     Delta=-2.17D-08
 NORM(A)=   0.10936645D+01
 Iteration Nr.  18
 **********************
 DD1Dir will call FoFMem   1 times, MxPair=       156
 NAB=    78 NAA=     0 NBB=     0.
 DE(Corr)= -0.86021761     E(CORR)=     -306.72693035     Delta= 1.35D-07
 NORM(A)=   0.10936637D+01
 Iteration Nr.  19
 **********************
 DD1Dir will call FoFMem   1 times, MxPair=       156
 NAB=    78 NAA=     0 NBB=     0.
 DE(Corr)= -0.86021759     E(CORR)=     -306.72693032     Delta= 2.42D-08
 NORM(A)=   0.10936631D+01
 Iteration Nr.  20
 **********************
 DD1Dir will call FoFMem   1 times, MxPair=       156
 NAB=    78 NAA=     0 NBB=     0.
 DE(Corr)= -0.86021759     E(CORR)=     -306.72693033     Delta=-3.48D-09
 NORM(A)=   0.10936627D+01
 Wavefunction amplitudes converged. E(Corr)=     -306.72693033    
 Largest amplitude= 3.25D-02
 Discarding MO integrals.

 **********************************************************************

            Population analysis using the SCF Density.

 **********************************************************************

 Orbital symmetries:
       Occupied  (B2) (A1) (A1) (A1) (B2) (A1) (A1) (B2) (A1) (B1)
                 (A1) (A2) (B2) (A1) (B1) (B2)
       Virtual   (A1) (B2) (B1) (A1) (B2) (A1) (B1) (A1) (A2) (B2)
                 (A1) (B1) (A1) (A1) (B2) (B1) (A1) (B1) (B2) (A1)
                 (A1) (B1) (A1) (B2) (A2) (B1) (B2) (A2) (A1) (B2)
                 (B1) (A2) (A1) (B2) (A1) (B2) (A1) (B1) (B1) (A1)
                 (A1) (B2) (A1) (B2) (B1) (A1) (A2) (B2) (A2) (B1)
                 (B2) (A1) (A1) (A1) (A2) (B1) (B2) (A1) (B1) (B2)
                 (A1) (B1) (B1) (A1) (A2) (B2) (A1) (B2) (A2) (A1)
                 (B1) (B2) (B2) (A1) (A1) (B1) (A2) (B2) (A1) (B2)
                 (A1) (B2) (A1) (A1) (B1) (A1) (B2) (A2) (A1) (B1)
                 (A2) (B1) (B2) (A1) (A2) (B2) (A1) (A2) (B2) (B1)
                 (B1) (A1) (A2) (B1) (B2) (A1) (B2) (A1) (A1) (B1)
                 (B2) (A1) (A2) (B1) (B2) (A1) (A2) (B2) (B2) (A1)
                 (B1) (B2) (A2) (B1) (A1) (A1) (B2) (A1) (B2) (A2)
                 (B2) (B1) (A1) (B1) (A1) (B2) (B1) (A2) (B2) (A1)
                 (B1) (A1) (B1) (A2) (B2) (A2) (A1) (A1) (B2) (B2)
                 (B1) (A1) (A2) (A1) (B2) (A2) (B1) (A1) (B1) (B2)
                 (B2) (A1) (A2) (B2) (A1) (A1) (B2) (A1)
 The electronic state is 1-A1.
 Alpha  occ. eigenvalues --  -25.79196 -25.79196 -25.70665  -1.98967  -1.05140
 Alpha  occ. eigenvalues --   -1.04783  -0.94905  -0.17327  -0.16121  -0.15204
 Alpha  occ. eigenvalues --   -0.15138  -0.14742  -0.14686  -0.05374  -0.05370
 Alpha  occ. eigenvalues --   -0.05366
 Alpha virt. eigenvalues --    0.15773   0.16130   0.16381   0.19022   0.28147
 Alpha virt. eigenvalues --    0.28157   0.28756   0.33342   0.35089   0.35897
 Alpha virt. eigenvalues --    0.35961   0.36173   0.38697   0.48327   0.48916
 Alpha virt. eigenvalues --    0.49640   0.53024   0.53789   0.54773   0.55531
 Alpha virt. eigenvalues --    0.57335   0.60425   0.60429   0.61588   0.63114
 Alpha virt. eigenvalues --    0.63681   0.64281   0.64311   0.64776   0.66527
 Alpha virt. eigenvalues --    0.70890   0.73544   0.74156   0.74649   0.77714
 Alpha virt. eigenvalues --    0.82688   0.83846   0.83925   0.85110   0.85844
 Alpha virt. eigenvalues --    0.90884   0.95095   0.99879   1.17634   1.20036
 Alpha virt. eigenvalues --    1.22218   1.26431   1.27670   1.30774   1.31848
 Alpha virt. eigenvalues --    1.32507   1.33484   1.34138   1.37055   1.38468
 Alpha virt. eigenvalues --    1.39207   1.40659   1.45360   1.50645   1.50702
 Alpha virt. eigenvalues --    1.52036   1.53522   1.55832   1.55972   1.57384
 Alpha virt. eigenvalues --    1.58092   1.58221   1.60767   1.60950   1.66181
 Alpha virt. eigenvalues --    1.71291   1.75664   1.81025   1.98042   2.00558
 Alpha virt. eigenvalues --    2.03422   2.04915   2.12239   2.12672   2.45011
 Alpha virt. eigenvalues --    2.48317   2.93069   2.99384   3.19290   3.35803
 Alpha virt. eigenvalues --    3.36285   3.36586   3.37006   3.39156   3.39200
 Alpha virt. eigenvalues --    3.39822   3.39865   3.40729   3.40981   3.41024
 Alpha virt. eigenvalues --    3.42050   3.43117   3.43838   3.45904   3.45906
 Alpha virt. eigenvalues --    3.46198   3.46735   3.46764   3.46814   3.46846
 Alpha virt. eigenvalues --    3.48661   3.50364   3.52914   3.55366   3.55875
 Alpha virt. eigenvalues --    3.57122   3.69156   3.69266   3.70244   3.73488
 Alpha virt. eigenvalues --    3.74403   3.79665   3.83361   4.10897   4.85320
 Alpha virt. eigenvalues --    5.83574   5.83888   5.94696   5.95130   5.97292
 Alpha virt. eigenvalues --    5.99788   6.00683   6.19946   6.37097   9.30417
 Alpha virt. eigenvalues --    9.30503   9.32179   9.32558   9.34487   9.34551
 Alpha virt. eigenvalues --    9.38624   9.39573   9.39601   9.39672   9.40315
 Alpha virt. eigenvalues --    9.41275   9.42173   9.42607   9.44316   9.44744
 Alpha virt. eigenvalues --    9.44871   9.45379   9.47592   9.48894   9.54681
 Alpha virt. eigenvalues --    9.82788   9.84156   9.87350   9.89142   9.90622
 Alpha virt. eigenvalues --    9.91098   9.92334   9.93870   9.93906   9.94083
 Alpha virt. eigenvalues --    9.97298   9.98286   9.99672  10.00588  10.01216
 Alpha virt. eigenvalues --   11.77374  12.97155  13.14960
          Condensed to atoms (all electrons):
               1          2          3          4
     1  F   10.084678  -0.012064  -0.019387  -0.012064
     2  F   -0.012064  10.068870  -0.129645   0.063516
     3  Li  -0.019387  -0.129645   2.256158  -0.129645
     4  F   -0.012064   0.063516  -0.129645  10.068870
 Mulliken charges:
               1
     1  F   -1.041164
     2  F   -0.990677
     3  Li   1.022519
     4  F   -0.990677
 Sum of Mulliken charges =  -2.00000
 Mulliken charges with hydrogens summed into heavy atoms:
               1
     1  F   -1.041164
     2  F   -0.990677
     3  Li   1.022519
     4  F   -0.990677
 Electronic spatial extent (au):  <R**2>=            475.3429
 Charge=             -2.0000 electrons
 Dipole moment (field-independent basis, Debye):
    X=              0.0000    Y=              0.0000    Z=             -5.2825  Tot=              5.2825
 Quadrupole moment (field-independent basis, Debye-Ang):
   XX=            -21.2659   YY=            -46.6083   ZZ=            -48.6857
   XY=             -0.0000   XZ=             -0.0000   YZ=              0.0000
 Traceless Quadrupole moment (field-independent basis, Debye-Ang):
   XX=             17.5874   YY=             -7.7550   ZZ=             -9.8324
   XY=             -0.0000   XZ=             -0.0000   YZ=              0.0000
 Octapole moment (field-independent basis, Debye-Ang**2):
  XXX=              0.0000  YYY=             -0.0000  ZZZ=            -49.5920  XYY=              0.0000
  XXY=              0.0000  XXZ=             -2.2478  XZZ=              0.0000  YZZ=             -0.0000
  YYZ=             22.4565  XYZ=              0.0000
 Hexadecapole moment (field-independent basis, Debye-Ang**3):
 XXXX=            -21.5098 YYYY=           -323.0403 ZZZZ=           -397.7572 XXXY=             -0.0000
 XXXZ=             -0.0000 YYYX=             -0.0000 YYYZ=              0.0000 ZZZX=             -0.0000
 ZZZY=              0.0000 XXYY=            -45.9987 XXZZ=            -51.9935 YYZZ=           -114.0838
 XXYZ=              0.0000 YYXZ=             -0.0000 ZZXY=             -0.0000
 N-N= 5.899832477312D+01 E-N=-8.687333138665D+02  KE= 3.058468215108D+02
 Symmetry A1   KE= 1.891184172332D+02
 Symmetry A2   KE= 5.788870453066D+00
 Symmetry B1   KE= 1.137106016478D+01
 Symmetry B2   KE= 9.956847365975D+01
 1\1\GINC-HELIOS\SP\RCCSD-FC\Aug-CC-pVTZ\F3Li1(2-)\POHL\22-May-2025\0\\
 # CCSD/aug-cc-pVTZ SP\\Single-point energy of X- + Y- at fixed distanc
 e R\\-2,1\F,0,0.,0.,3.\F,0,-1.702,0.,0.\Li,0,0.,0.,0.\F,0,1.702,0.,0.\
 \Version=EM64L-G16RevB.01\State=1-A1\HF=-305.8667127\MP2=-306.7418484\
 MP3=-306.7134874\MP4D=-306.7305244\MP4DQ=-306.7212589\MP4SDQ=-306.7344
 626\CCSD=-306.7269303\RMSD=4.374e-09\PG=C02V [C2(Li1F1),SGV(F2)]\\@


 WHAT THE SLIME CONTAINS, THE GLOWING REVEALS
 BY THE FLAME'S BRIGHT HUE WHEN YOU IGNITE IT.
   --  LEONARD THURNEYSSER, 1531-1596
 DESCRIBING HIS FLAME PHOTOLYSIS ANALYTIC METHOD
 Job cpu time:       0 days  0 hours 10 minutes 46.2 seconds.
 Elapsed time:       0 days  0 hours  1 minutes  4.9 seconds.
 File lengths (MBytes):  RWF=   1103 Int=      0 D2E=      0 Chk=      3 Scr=      1
 Normal termination of Gaussian 16 at Thu May 22 13:30:21 2025.
