 Entering Gaussian System, Link 0=g16
 Initial command:
 /opt/g16/l1.exe "/home/pohl/scratches/g16/Gau-1630790.inp" -scrdir="/home/pohl/scratches/g16/"
 Entering Link 1 = /opt/g16/l1.exe PID=   1630792.
  
 Copyright (c) 1988-2017, Gaussian, Inc.  All Rights Reserved.
  
 This is part of the Gaussian(R) 16 program.  It is based on
 the Gaussian(R) 09 system (copyright 2009, Gaussian, Inc.),
 the Gaussian(R) 03 system (copyright 2003, Gaussian, Inc.),
 the Gaussian(R) 98 system (copyright 1998, Gaussian, Inc.),
 the Gaussian(R) 94 system (copyright 1995, Gaussian, Inc.),
 the Gaussian 92(TM) system (copyright 1992, Gaussian, Inc.),
 the Gaussian 90(TM) system (copyright 1990, Gaussian, Inc.),
 the Gaussian 88(TM) system (copyright 1988, Gaussian, Inc.),
 the Gaussian 86(TM) system (copyright 1986, Carnegie Mellon
 University), and the Gaussian 82(TM) system (copyright 1983,
 Carnegie Mellon University). Gaussian is a federally registered
 trademark of Gaussian, Inc.
  
 This software contains proprietary and confidential information,
 including trade secrets, belonging to Gaussian, Inc.
  
 This software is provided under written license and may be
 used, copied, transmitted, or stored only in accord with that
 written license.
  
 The following legend is applicable only to US Government
 contracts under FAR:
  
                    RESTRICTED RIGHTS LEGEND
  
 Use, reproduction and disclosure by the US Government is
 subject to restrictions as set forth in subparagraphs (a)
 and (c) of the Commercial Computer Software - Restricted
 Rights clause in FAR 52.227-19.
  
 Gaussian, Inc.
 340 Quinnipiac St., Bldg. 40, Wallingford CT 06492
  
  
 ---------------------------------------------------------------
 Warning -- This program may not be used in any manner that
 competes with the business of Gaussian, Inc. or will provide
 assistance to any competitor of Gaussian, Inc.  The licensee
 of this program is prohibited from giving any competitor of
 Gaussian, Inc. access to this program.  By using this program,
 the user acknowledges that Gaussian, Inc. is engaged in the
 business of creating and licensing software in the field of
 computational chemistry and represents and warrants to the
 licensee that it is not a competitor of Gaussian, Inc. and that
 it will not use this program in any manner prohibited above.
 ---------------------------------------------------------------
  

 Cite this work as:
 Gaussian 16, Revision B.01,
 M. J. Frisch, G. W. Trucks, H. B. Schlegel, G. E. Scuseria, 
 M. A. Robb, J. R. Cheeseman, G. Scalmani, V. Barone, 
 G. A. Petersson, H. Nakatsuji, X. Li, M. Caricato, A. V. Marenich, 
 J. Bloino, B. G. Janesko, R. Gomperts, B. Mennucci, H. P. Hratchian, 
 J. V. Ortiz, A. F. Izmaylov, J. L. Sonnenberg, D. Williams-Young, 
 F. Ding, F. Lipparini, F. Egidi, J. Goings, B. Peng, A. Petrone, 
 T. Henderson, D. Ranasinghe, V. G. Zakrzewski, J. Gao, N. Rega, 
 G. Zheng, W. Liang, M. Hada, M. Ehara, K. Toyota, R. Fukuda, 
 J. Hasegawa, M. Ishida, T. Nakajima, Y. Honda, O. Kitao, H. Nakai, 
 T. Vreven, K. Throssell, J. A. Montgomery, Jr., J. E. Peralta, 
 F. Ogliaro, M. J. Bearpark, J. J. Heyd, E. N. Brothers, K. N. Kudin, 
 V. N. Staroverov, T. A. Keith, R. Kobayashi, J. Normand, 
 K. Raghavachari, A. P. Rendell, J. C. Burant, S. S. Iyengar, 
 J. Tomasi, M. Cossi, J. M. Millam, M. Klene, C. Adamo, R. Cammi, 
 J. W. Ochterski, R. L. Martin, K. Morokuma, O. Farkas, 
 J. B. Foresman, and D. J. Fox, Gaussian, Inc., Wallingford CT, 2016.
 
 ******************************************
 Gaussian 16:  EM64L-G16RevB.01 20-Dec-2017
                19-May-2025 
 ******************************************
 %mem=30GB
 %nprocshared=10
 Will use up to   10 processors via shared memory.
 ---------------------
 # CCSD/aug-cc-pVTZ SP
 ---------------------
 1/38=1,172=1/1;
 2/12=2,17=6,18=5,40=1/2;
 3/5=16,6=1,7=10,11=9,25=1,30=1/1,2,3;
 4//1;
 5/5=2,38=5/2;
 8/6=4,9=120000,10=1/1,4;
 9/5=7/13;
 6/7=2,8=2,9=2,10=2/1;
 99/5=1,9=1/99;
 --------------------------------------------------
 Single-point energy of X- + Y- at fixed distance R
 --------------------------------------------------
 Symbolic Z-matrix:
 Charge = -2 Multiplicity = 1
 F                     0.        0.        4.2 
 F                    -1.702     0.        0. 
 Li                    0.        0.        0. 
 F                     1.702     0.        0. 
 
                          Input orientation:                          
 ---------------------------------------------------------------------
 Center     Atomic      Atomic             Coordinates (Angstroms)
 Number     Number       Type             X           Y           Z
 ---------------------------------------------------------------------
      1          9           0        0.000000    0.000000    4.200000
      2          9           0       -1.702000    0.000000    0.000000
      3          3           0        0.000000    0.000000    0.000000
      4          9           0        1.702000    0.000000    0.000000
 ---------------------------------------------------------------------
                    Distance matrix (angstroms):
                    1          2          3          4
     1  F    0.000000
     2  F    4.531755   0.000000
     3  Li   4.200000   1.702000   0.000000
     4  F    4.531755   3.404000   1.702000   0.000000
 Stoichiometry    F3Li(2-)
 Framework group  C2V[C2(LiF),SGV(F2)]
 Deg. of freedom     3
 Full point group                 C2V     NOp   4
 Largest Abelian subgroup         C2V     NOp   4
 Largest concise Abelian subgroup C2      NOp   2
                         Standard orientation:                         
 ---------------------------------------------------------------------
 Center     Atomic      Atomic             Coordinates (Angstroms)
 Number     Number       Type             X           Y           Z
 ---------------------------------------------------------------------
      1          9           0       -0.000000    0.000000    2.940000
      2          9           0        0.000000    1.702000   -1.260000
      3          3           0        0.000000    0.000000   -1.260000
      4          9           0       -0.000000   -1.702000   -1.260000
 ---------------------------------------------------------------------
 Rotational constants (GHZ):           4.5914620           2.1444773           1.4617540
 Standard basis: Aug-CC-pVTZ (5D, 7F)
 There are    85 symmetry adapted cartesian basis functions of A1  symmetry.
 There are    28 symmetry adapted cartesian basis functions of A2  symmetry.
 There are    44 symmetry adapted cartesian basis functions of B1  symmetry.
 There are    63 symmetry adapted cartesian basis functions of B2  symmetry.
 There are    68 symmetry adapted basis functions of A1  symmetry.
 There are    26 symmetry adapted basis functions of A2  symmetry.
 There are    38 symmetry adapted basis functions of B1  symmetry.
 There are    52 symmetry adapted basis functions of B2  symmetry.
   184 basis functions,   290 primitive gaussians,   220 cartesian basis functions
    16 alpha electrons       16 beta electrons
       nuclear repulsion energy        51.7002035117 Hartrees.
 NAtoms=    4 NActive=    4 NUniq=    3 SFac= 1.78D+00 NAtFMM=   60 NAOKFM=F Big=F
 Integral buffers will be    131072 words long.
 Raffenetti 1 integral format.
 Two-electron integral symmetry is turned on.
 One-electron integrals computed using PRISM.
 NBasis=   184 RedAO= T EigKep=  2.56D-04  NBF=    68    26    38    52
 NBsUse=   184 1.00D-06 EigRej= -1.00D+00 NBFU=    68    26    38    52
 ExpMin= 7.59D-03 ExpMax= 1.95D+04 ExpMxC= 6.65D+02 IAcc=3 IRadAn=         5 AccDes= 0.00D+00
 Harris functional with IExCor=  205 and IRadAn=       5 diagonalized for initial guess.
 HarFok:  IExCor=  205 AccDes= 0.00D+00 IRadAn=         5 IDoV= 1 UseB2=F ITyADJ=14
 ICtDFT=  3500011 ScaDFX=  1.000000  1.000000  1.000000  1.000000
 FoFCou: FMM=F IPFlag=           0 FMFlag=      100000 FMFlg1=           0
         NFxFlg=           0 DoJE=T BraDBF=F KetDBF=T FulRan=T
         wScrn=  0.000000 ICntrl=       500 IOpCl=  0 I1Cent=   200000004 NGrid=           0
         NMat0=    1 NMatS0=      1 NMatT0=    0 NMatD0=    1 NMtDS0=    0 NMtDT0=    0
 Petite list used in FoFCou.
 Initial guess orbital symmetries:
       Occupied  (A1) (B2) (A1) (A1) (B2) (A1) (A1) (B2) (A1) (A1)
                 (B1) (B2) (A2) (A1) (B2) (B1)
       Virtual   (A1) (A1) (B1) (B2) (A1) (A1) (B1) (B2) (A1) (B1)
                 (B2) (A2) (A1) (A1) (B1) (A1) (B2) (A1) (B2) (B1)
                 (B1) (A1) (B2) (A1) (B1) (A2) (B2) (A1) (A2) (A1)
                 (B2) (B1) (A1) (A2) (B1) (B2) (B2) (A1) (A1) (A1)
                 (A1) (B1) (B2) (B2) (B2) (A1) (B1) (A2) (A2) (A1)
                 (B2) (B1) (A2) (B2) (A1) (A1) (B1) (B2) (A1) (B1)
                 (A1) (A1) (B1) (B1) (B2) (A1) (A2) (B2) (B1) (A1)
                 (A2) (B2) (A1) (B2) (A1) (B1) (A1) (B2) (A2) (A1)
                 (B2) (B2) (A1) (A1) (B1) (A1) (A2) (A1) (B2) (B1)
                 (B1) (A1) (A2) (B2) (A2) (B2) (A2) (A1) (B2) (B1)
                 (A1) (B2) (B1) (B2) (A1) (A2) (B1) (B2) (A1) (B1)
                 (A1) (A1) (B1) (A2) (B2) (A1) (A2) (B2) (B2) (A1)
                 (B1) (B2) (A1) (A2) (B1) (B2) (A1) (A1) (B2) (A2)
                 (B2) (B1) (A1) (B1) (A1) (B1) (B2) (A2) (A1) (B1)
                 (B2) (A1) (B1) (A1) (A2) (B2) (A2) (B2) (A1) (B2)
                 (B1) (A1) (A2) (A1) (B2) (B1) (A1) (A2) (B2) (B1)
                 (A1) (B2) (A1) (A2) (B2) (A1) (B2) (A1)
 The electronic state of the initial guess is 1-A1.
 Keep R1 ints in memory in symmetry-blocked form, NReq=181483703.
 Requested convergence on RMS density matrix=1.00D-08 within 128 cycles.
 Requested convergence on MAX density matrix=1.00D-06.
 Requested convergence on             energy=1.00D-06.
 No special actions if energy rises.
 SCF Done:  E(RHF) =  -305.890005872     A.U. after   10 cycles
            NFock= 10  Conv=0.80D-08     -V/T= 2.0001
 ExpMin= 7.59D-03 ExpMax= 1.95D+04 ExpMxC= 6.65D+02 IAcc=3 IRadAn=         5 AccDes= 0.00D+00
 HarFok:  IExCor=  205 AccDes= 0.00D+00 IRadAn=         5 IDoV=-2 UseB2=F ITyADJ=14
 ICtDFT= 12500011 ScaDFX=  1.000000  1.000000  1.000000  1.000000
 Range of M.O.s used for correlation:     5   184
 NBasis=   184 NAE=    16 NBE=    16 NFC=     4 NFV=     0
 NROrb=    180 NOA=    12 NOB=    12 NVA=   168 NVB=   168

 **** Warning!!: The largest alpha MO coefficient is  0.22127903D+02

 Semi-Direct transformation.
 ModeAB=           4 MOrb=            12 LenV=    4025586039
 LASXX=      8444399 LTotXX=     8444399 LenRXX=    17045430
 LTotAB=     8601031 MaxLAS=    30723840 LenRXY=           0
 NonZer=    25489829 LenScr=    39014400 LnRSAI=    30723840
 LnScr1=    46848000 LExtra=           0 Total=    133631670
 MaxDsk=          -1 SrtSym=           T ITran=            4
 JobTyp=0 Pass  1:  I=   1 to  12.
 (rs|ai) integrals will be sorted in core.
 Spin components of T(2) and E(2):
     alpha-alpha T2 =       0.2602824817D-01 E2=     -0.1153913315D+00
     alpha-beta  T2 =       0.1332306909D+00 E2=     -0.6429607661D+00
     beta-beta   T2 =       0.2602824817D-01 E2=     -0.1153913315D+00
 ANorm=    0.1088708954D+01
 E2 =    -0.8737434291D+00 EUMP2 =    -0.30676374930147D+03
 Keep R2 and R3 ints in memory in symmetry-blocked form, NReq=181490657.
 CIDS: In Core Option IDoMem=           1.
 Iterations=  50 Convergence= 0.100D-06
 Produce multiple copies of IABC intergrals
 Iteration Nr.   1
 **********************
 DD1Dir will call FoFMem   1 times, MxPair=       156
 NAB=    78 NAA=     0 NBB=     0.
 MP4(R+Q)=  0.91141191D-02
 E3=        0.28086331D-01        EUMP3=      -0.30673566297D+03
 E4(DQ)=   -0.77757334D-02        UMP4(DQ)=   -0.30674343870D+03
 E4(SDQ)=  -0.20603498D-01        UMP4(SDQ)=  -0.30675626647D+03
 DE(Corr)= -0.83543046     E(Corr)=     -306.72543633    
 NORM(A)=   0.10822603D+01
 Iteration Nr.   2
 **********************
 DD1Dir will call FoFMem   1 times, MxPair=       156
 NAB=    78 NAA=     0 NBB=     0.
 DE(Corr)= -0.86015175     E(CORR)=     -306.75015762     Delta=-2.47D-02
 NORM(A)=   0.10879937D+01
 Iteration Nr.   3
 **********************
 DD1Dir will call FoFMem   1 times, MxPair=       156
 NAB=    78 NAA=     0 NBB=     0.
 DE(Corr)= -0.85651553     E(CORR)=     -306.74652140     Delta= 3.64D-03
 NORM(A)=   0.10907136D+01
 Iteration Nr.   4
 **********************
 DD1Dir will call FoFMem   1 times, MxPair=       156
 NAB=    78 NAA=     0 NBB=     0.
 DE(Corr)= -0.85863104     E(CORR)=     -306.74863692     Delta=-2.12D-03
 NORM(A)=   0.10917083D+01
 Iteration Nr.   5
 **********************
 DD1Dir will call FoFMem   1 times, MxPair=       156
 NAB=    78 NAA=     0 NBB=     0.
 DE(Corr)= -0.85885939     E(CORR)=     -306.74886526     Delta=-2.28D-04
 NORM(A)=   0.10920664D+01
 Iteration Nr.   6
 **********************
 DD1Dir will call FoFMem   1 times, MxPair=       156
 NAB=    78 NAA=     0 NBB=     0.
 DE(Corr)= -0.85888407     E(CORR)=     -306.74888994     Delta=-2.47D-05
 NORM(A)=   0.10922175D+01
 Iteration Nr.   7
 **********************
 DD1Dir will call FoFMem   1 times, MxPair=       156
 NAB=    78 NAA=     0 NBB=     0.
 DE(Corr)= -0.85888187     E(CORR)=     -306.74888774     Delta= 2.20D-06
 NORM(A)=   0.10922736D+01
 Iteration Nr.   8
 **********************
 DD1Dir will call FoFMem   1 times, MxPair=       156
 NAB=    78 NAA=     0 NBB=     0.
 DE(Corr)= -0.85890175     E(CORR)=     -306.74890762     Delta=-1.99D-05
 NORM(A)=   0.10923052D+01
 Iteration Nr.   9
 **********************
 DD1Dir will call FoFMem   1 times, MxPair=       156
 NAB=    78 NAA=     0 NBB=     0.
 DE(Corr)= -0.85888709     E(CORR)=     -306.74889297     Delta= 1.47D-05
 NORM(A)=   0.10923291D+01
 Iteration Nr.  10
 **********************
 DD1Dir will call FoFMem   1 times, MxPair=       156
 NAB=    78 NAA=     0 NBB=     0.
 DE(Corr)= -0.85888857     E(CORR)=     -306.74889444     Delta=-1.48D-06
 NORM(A)=   0.10923278D+01
 Iteration Nr.  11
 **********************
 DD1Dir will call FoFMem   1 times, MxPair=       156
 NAB=    78 NAA=     0 NBB=     0.
 DE(Corr)= -0.85888847     E(CORR)=     -306.74889434     Delta= 1.05D-07
 NORM(A)=   0.10923253D+01
 Iteration Nr.  12
 **********************
 DD1Dir will call FoFMem   1 times, MxPair=       156
 NAB=    78 NAA=     0 NBB=     0.
 DE(Corr)= -0.85888586     E(CORR)=     -306.74889173     Delta= 2.61D-06
 NORM(A)=   0.10923230D+01
 Iteration Nr.  13
 **********************
 DD1Dir will call FoFMem   1 times, MxPair=       156
 NAB=    78 NAA=     0 NBB=     0.
 DE(Corr)= -0.85888500     E(CORR)=     -306.74889087     Delta= 8.60D-07
 NORM(A)=   0.10923201D+01
 Iteration Nr.  14
 **********************
 DD1Dir will call FoFMem   1 times, MxPair=       156
 NAB=    78 NAA=     0 NBB=     0.
 DE(Corr)= -0.85888493     E(CORR)=     -306.74889080     Delta= 6.59D-08
 NORM(A)=   0.10923181D+01
 Iteration Nr.  15
 **********************
 DD1Dir will call FoFMem   1 times, MxPair=       156
 NAB=    78 NAA=     0 NBB=     0.
 DE(Corr)= -0.85888462     E(CORR)=     -306.74889049     Delta= 3.13D-07
 NORM(A)=   0.10923171D+01
 Iteration Nr.  16
 **********************
 DD1Dir will call FoFMem   1 times, MxPair=       156
 NAB=    78 NAA=     0 NBB=     0.
 DE(Corr)= -0.85888452     E(CORR)=     -306.74889039     Delta= 9.50D-08
 NORM(A)=   0.10923163D+01
 Iteration Nr.  17
 **********************
 DD1Dir will call FoFMem   1 times, MxPair=       156
 NAB=    78 NAA=     0 NBB=     0.
 DE(Corr)= -0.85888453     E(CORR)=     -306.74889041     Delta=-1.21D-08
 NORM(A)=   0.10923158D+01
 Iteration Nr.  18
 **********************
 DD1Dir will call FoFMem   1 times, MxPair=       156
 NAB=    78 NAA=     0 NBB=     0.
 DE(Corr)= -0.85888449     E(CORR)=     -306.74889037     Delta= 3.93D-08
 NORM(A)=   0.10923156D+01
 Wavefunction amplitudes converged. E(Corr)=     -306.74889037    
 Largest amplitude= 3.58D-02
 Discarding MO integrals.

 **********************************************************************

            Population analysis using the SCF Density.

 **********************************************************************

 Orbital symmetries:
       Occupied  (B2) (A1) (A1) (A1) (B2) (A1) (A1) (B2) (A1) (B1)
                 (A1) (A2) (B2) (B2) (B1) (A1)
       Virtual   (A1) (B2) (B1) (A1) (A1) (B2) (B1) (A1) (A2) (A1)
                 (B1) (B2) (A1) (B2) (B1) (A1) (A1) (B1) (A1) (B2)
                 (A1) (B1) (B2) (A1) (A2) (B1) (A2) (B2) (A1) (B2)
                 (B1) (A1) (A2) (B2) (A1) (B2) (A1) (B1) (B1) (A1)
                 (A1) (A1) (B2) (B2) (B1) (A1) (A2) (B2) (A2) (B2)
                 (B1) (A1) (A1) (A1) (A2) (B2) (B1) (A1) (B1) (B2)
                 (A1) (B1) (A1) (B1) (A1) (A2) (B2) (A2) (B2) (A1)
                 (B1) (B2) (A1) (B2) (A1) (B1) (A2) (A1) (B2) (A1)
                 (B2) (B2) (A1) (A1) (B1) (A1) (A2) (B2) (B1) (B2)
                 (A1) (A2) (A1) (B1) (B2) (A2) (A1) (A2) (B1) (B2)
                 (A1) (B1) (B2) (A1) (A2) (A1) (B1) (B1) (B2) (B2)
                 (A1) (A1) (A2) (B2) (B1) (A1) (A2) (B2) (B2) (A1)
                 (B1) (B2) (A1) (A2) (B2) (B1) (A1) (A1) (B2) (A2)
                 (B2) (B1) (A1) (B1) (A1) (B1) (B2) (A1) (A2) (B2)
                 (B1) (A1) (B1) (A1) (A2) (B2) (A2) (B2) (A1) (B2)
                 (B1) (A1) (B2) (A2) (A1) (A2) (B1) (B2) (A1) (B1)
                 (B2) (A1) (A1) (A2) (B2) (A1) (B2) (A1)
 The electronic state is 1-A1.
 Alpha  occ. eigenvalues --  -25.82524 -25.82524 -25.72760  -2.03162  -1.08501
 Alpha  occ. eigenvalues --   -1.08141  -0.96963  -0.20689  -0.19466  -0.18549
 Alpha  occ. eigenvalues --   -0.18498  -0.18077  -0.18039  -0.07458  -0.07453
 Alpha  occ. eigenvalues --   -0.07440
 Alpha virt. eigenvalues --    0.15221   0.15915   0.16111   0.19340   0.27095
 Alpha virt. eigenvalues --    0.27164   0.27518   0.31765   0.33751   0.34714
 Alpha virt. eigenvalues --    0.35267   0.35694   0.37697   0.46885   0.46977
 Alpha virt. eigenvalues --    0.47250   0.51604   0.51994   0.52225   0.52769
 Alpha virt. eigenvalues --    0.55250   0.56354   0.57653   0.58638   0.61187
 Alpha virt. eigenvalues --    0.61536   0.61801   0.62645   0.63129   0.64607
 Alpha virt. eigenvalues --    0.65069   0.65388   0.70453   0.71107   0.73573
 Alpha virt. eigenvalues --    0.76037   0.77346   0.80337   0.82437   0.84063
 Alpha virt. eigenvalues --    0.85604   0.90603   0.91981   1.14347   1.15806
 Alpha virt. eigenvalues --    1.16688   1.23235   1.23541   1.26437   1.26778
 Alpha virt. eigenvalues --    1.28058   1.29804   1.30811   1.34168   1.34198
 Alpha virt. eigenvalues --    1.34861   1.36002   1.36134   1.39299   1.42863
 Alpha virt. eigenvalues --    1.48445   1.49645   1.50928   1.51177   1.52984
 Alpha virt. eigenvalues --    1.54669   1.55520   1.56559   1.57291   1.61552
 Alpha virt. eigenvalues --    1.65196   1.65481   1.70780   1.75890   1.95874
 Alpha virt. eigenvalues --    1.99867   2.01409   2.01917   2.02067   2.36525
 Alpha virt. eigenvalues --    2.42010   2.89571   2.95766   3.15687   3.31977
 Alpha virt. eigenvalues --    3.32453   3.33680   3.33685   3.35923   3.36261
 Alpha virt. eigenvalues --    3.36365   3.36753   3.36967   3.37036   3.37715
 Alpha virt. eigenvalues --    3.37757   3.39298   3.39723   3.41270   3.42818
 Alpha virt. eigenvalues --    3.43326   3.43774   3.43780   3.43934   3.43968
 Alpha virt. eigenvalues --    3.44207   3.44278   3.44459   3.45289   3.47900
 Alpha virt. eigenvalues --    3.49106   3.54083   3.64966   3.65054   3.66987
 Alpha virt. eigenvalues --    3.68012   3.76473   3.76877   4.06654   4.79219
 Alpha virt. eigenvalues --    5.79342   5.79657   5.81850   5.91304   5.91636
 Alpha virt. eigenvalues --    5.91807   5.92749   6.16446   6.33421   9.27064
 Alpha virt. eigenvalues --    9.27069   9.28847   9.28864   9.31298   9.31351
 Alpha virt. eigenvalues --    9.37408   9.37411   9.37441   9.37446   9.37625
 Alpha virt. eigenvalues --    9.37627   9.37873   9.39025   9.39276   9.40589
 Alpha virt. eigenvalues --    9.40708   9.41491   9.41857   9.43894   9.50138
 Alpha virt. eigenvalues --    9.79254   9.79466   9.84993   9.85058   9.85315
 Alpha virt. eigenvalues --    9.86443   9.86608   9.88719   9.88969   9.89136
 Alpha virt. eigenvalues --    9.91145   9.91436   9.95912   9.96386   9.96685
 Alpha virt. eigenvalues --   11.50931  12.93272  13.07107
          Condensed to atoms (all electrons):
               1          2          3          4
     1  F   10.018603  -0.000111  -0.009219  -0.000111
     2  F   -0.000111  10.008569  -0.084225   0.051005
     3  Li  -0.009219  -0.084225   2.218035  -0.084225
     4  F   -0.000111   0.051005  -0.084225  10.008569
 Mulliken charges:
               1
     1  F   -1.009161
     2  F   -0.975237
     3  Li   0.959635
     4  F   -0.975237
 Sum of Mulliken charges =  -2.00000
 Mulliken charges with hydrogens summed into heavy atoms:
               1
     1  F   -1.009161
     2  F   -0.975237
     3  Li   0.959635
     4  F   -0.975237
 Electronic spatial extent (au):  <R**2>=            686.9439
 Charge=             -2.0000 electrons
 Dipole moment (field-independent basis, Debye):
    X=              0.0000    Y=              0.0000    Z=             -7.8095  Tot=              7.8095
 Quadrupole moment (field-independent basis, Debye-Ang):
   XX=            -21.1728   YY=            -45.8972   ZZ=            -72.6525
   XY=             -0.0000   XZ=             -0.0000   YZ=              0.0000
 Traceless Quadrupole moment (field-independent basis, Debye-Ang):
   XX=             25.4014   YY=              0.6770   ZZ=            -26.0784
   XY=             -0.0000   XZ=             -0.0000   YZ=              0.0000
 Octapole moment (field-independent basis, Debye-Ang**2):
  XXX=              0.0000  YYY=             -0.0000  ZZZ=           -125.7984  XYY=              0.0000
  XXY=             -0.0000  XXZ=             -3.4032  XZZ=              0.0000  YZZ=             -0.0000
  YYZ=             28.9473  XYZ=              0.0000
 Hexadecapole moment (field-independent basis, Debye-Ang**3):
 XXXX=            -20.9400 YYYY=           -315.6938 ZZZZ=           -929.8418 XXXY=             -0.0000
 XXXZ=             -0.0000 YYYX=             -0.0000 YYYZ=              0.0000 ZZZX=             -0.0000
 ZZZY=             -0.0000 XXYY=            -45.2465 XXZZ=            -92.8843 YYZZ=           -172.9990
 XXYZ=             -0.0000 YYXZ=             -0.0000 ZZXY=             -0.0000
 N-N= 5.170020351175D+01 E-N=-8.532258083251D+02  KE= 3.058502537071D+02
 Symmetry A1   KE= 1.891192608067D+02
 Symmetry A2   KE= 5.801430176468D+00
 Symmetry B1   KE= 1.138875055414D+01
 Symmetry B2   KE= 9.954081216978D+01
 1\1\GINC-HELIOS\SP\RCCSD-FC\Aug-CC-pVTZ\F3Li1(2-)\POHL\19-May-2025\0\\
 # CCSD/aug-cc-pVTZ SP\\Single-point energy of X- + Y- at fixed distanc
 e R\\-2,1\F,0,0.,0.,4.2\F,0,-1.702,0.,0.\Li,0,0.,0.,0.\F,0,1.702,0.,0.
 \\Version=EM64L-G16RevB.01\State=1-A1\HF=-305.8900059\MP2=-306.7637493
 \MP3=-306.735663\MP4D=-306.7525528\MP4DQ=-306.7434387\MP4SDQ=-306.7562
 665\CCSD=-306.7488904\RMSD=8.045e-09\PG=C02V [C2(Li1F1),SGV(F2)]\\@


 AND THIS OUR LIFE, EXEMPT FROM PUBLIC HAUNT,
 FINDS TONGUES IN TREES, BOOKS IN THE RUNNING BROOKS,
 SERMONS IN STONES, AND GOOD IN EVERYTHING.
 I WOULD NOT CHANGE IT. -- W. SHAKESPEARE
 AS YOU LIKE IT, ACT II, SCENE 1.
 Job cpu time:       0 days  0 hours  9 minutes 35.5 seconds.
 Elapsed time:       0 days  0 hours  0 minutes 57.7 seconds.
 File lengths (MBytes):  RWF=   1068 Int=      0 D2E=      0 Chk=      3 Scr=      1
 Normal termination of Gaussian 16 at Mon May 19 13:20:35 2025.
