 Entering Gaussian System, Link 0=g16
 Initial command:
 /opt/g16/l1.exe "/home/pohl/scratches/g16/Gau-1630971.inp" -scrdir="/home/pohl/scratches/g16/"
 Entering Link 1 = /opt/g16/l1.exe PID=   1630973.
  
 Copyright (c) 1988-2017, Gaussian, Inc.  All Rights Reserved.
  
 This is part of the Gaussian(R) 16 program.  It is based on
 the Gaussian(R) 09 system (copyright 2009, Gaussian, Inc.),
 the Gaussian(R) 03 system (copyright 2003, Gaussian, Inc.),
 the Gaussian(R) 98 system (copyright 1998, Gaussian, Inc.),
 the Gaussian(R) 94 system (copyright 1995, Gaussian, Inc.),
 the Gaussian 92(TM) system (copyright 1992, Gaussian, Inc.),
 the Gaussian 90(TM) system (copyright 1990, Gaussian, Inc.),
 the Gaussian 88(TM) system (copyright 1988, Gaussian, Inc.),
 the Gaussian 86(TM) system (copyright 1986, Carnegie Mellon
 University), and the Gaussian 82(TM) system (copyright 1983,
 Carnegie Mellon University). Gaussian is a federally registered
 trademark of Gaussian, Inc.
  
 This software contains proprietary and confidential information,
 including trade secrets, belonging to Gaussian, Inc.
  
 This software is provided under written license and may be
 used, copied, transmitted, or stored only in accord with that
 written license.
  
 The following legend is applicable only to US Government
 contracts under FAR:
  
                    RESTRICTED RIGHTS LEGEND
  
 Use, reproduction and disclosure by the US Government is
 subject to restrictions as set forth in subparagraphs (a)
 and (c) of the Commercial Computer Software - Restricted
 Rights clause in FAR 52.227-19.
  
 Gaussian, Inc.
 340 Quinnipiac St., Bldg. 40, Wallingford CT 06492
  
  
 ---------------------------------------------------------------
 Warning -- This program may not be used in any manner that
 competes with the business of Gaussian, Inc. or will provide
 assistance to any competitor of Gaussian, Inc.  The licensee
 of this program is prohibited from giving any competitor of
 Gaussian, Inc. access to this program.  By using this program,
 the user acknowledges that Gaussian, Inc. is engaged in the
 business of creating and licensing software in the field of
 computational chemistry and represents and warrants to the
 licensee that it is not a competitor of Gaussian, Inc. and that
 it will not use this program in any manner prohibited above.
 ---------------------------------------------------------------
  

 Cite this work as:
 Gaussian 16, Revision B.01,
 M. J. Frisch, G. W. Trucks, H. B. Schlegel, G. E. Scuseria, 
 M. A. Robb, J. R. Cheeseman, G. Scalmani, V. Barone, 
 G. A. Petersson, H. Nakatsuji, X. Li, M. Caricato, A. V. Marenich, 
 J. Bloino, B. G. Janesko, R. Gomperts, B. Mennucci, H. P. Hratchian, 
 J. V. Ortiz, A. F. Izmaylov, J. L. Sonnenberg, D. Williams-Young, 
 F. Ding, F. Lipparini, F. Egidi, J. Goings, B. Peng, A. Petrone, 
 T. Henderson, D. Ranasinghe, V. G. Zakrzewski, J. Gao, N. Rega, 
 G. Zheng, W. Liang, M. Hada, M. Ehara, K. Toyota, R. Fukuda, 
 J. Hasegawa, M. Ishida, T. Nakajima, Y. Honda, O. Kitao, H. Nakai, 
 T. Vreven, K. Throssell, J. A. Montgomery, Jr., J. E. Peralta, 
 F. Ogliaro, M. J. Bearpark, J. J. Heyd, E. N. Brothers, K. N. Kudin, 
 V. N. Staroverov, T. A. Keith, R. Kobayashi, J. Normand, 
 K. Raghavachari, A. P. Rendell, J. C. Burant, S. S. Iyengar, 
 J. Tomasi, M. Cossi, J. M. Millam, M. Klene, C. Adamo, R. Cammi, 
 J. W. Ochterski, R. L. Martin, K. Morokuma, O. Farkas, 
 J. B. Foresman, and D. J. Fox, Gaussian, Inc., Wallingford CT, 2016.
 
 ******************************************
 Gaussian 16:  EM64L-G16RevB.01 20-Dec-2017
                19-May-2025 
 ******************************************
 %mem=30GB
 %nprocshared=10
 Will use up to   10 processors via shared memory.
 ---------------------
 # CCSD/aug-cc-pVTZ SP
 ---------------------
 1/38=1,172=1/1;
 2/12=2,17=6,18=5,40=1/2;
 3/5=16,6=1,7=10,11=9,25=1,30=1/1,2,3;
 4//1;
 5/5=2,38=5/2;
 8/6=4,9=120000,10=1/1,4;
 9/5=7/13;
 6/7=2,8=2,9=2,10=2/1;
 99/5=1,9=1/99;
 --------------------------------------------------
 Single-point energy of X- + Y- at fixed distance R
 --------------------------------------------------
 Symbolic Z-matrix:
 Charge = -2 Multiplicity = 1
 F                     0.        0.        4.5 
 F                    -1.702     0.        0. 
 Li                    0.        0.        0. 
 F                     1.702     0.        0. 
 
                          Input orientation:                          
 ---------------------------------------------------------------------
 Center     Atomic      Atomic             Coordinates (Angstroms)
 Number     Number       Type             X           Y           Z
 ---------------------------------------------------------------------
      1          9           0        0.000000    0.000000    4.500000
      2          9           0       -1.702000    0.000000    0.000000
      3          3           0        0.000000    0.000000    0.000000
      4          9           0        1.702000    0.000000    0.000000
 ---------------------------------------------------------------------
                    Distance matrix (angstroms):
                    1          2          3          4
     1  F    0.000000
     2  F    4.811113   0.000000
     3  Li   4.500000   1.702000   0.000000
     4  F    4.811113   3.404000   1.702000   0.000000
 Stoichiometry    F3Li(2-)
 Framework group  C2V[C2(LiF),SGV(F2)]
 Deg. of freedom     3
 Full point group                 C2V     NOp   4
 Largest Abelian subgroup         C2V     NOp   4
 Largest concise Abelian subgroup C2      NOp   2
                         Standard orientation:                         
 ---------------------------------------------------------------------
 Center     Atomic      Atomic             Coordinates (Angstroms)
 Number     Number       Type             X           Y           Z
 ---------------------------------------------------------------------
      1          9           0       -0.000000    0.000000    3.150000
      2          9           0        0.000000    1.702000   -1.350000
      3          3           0        0.000000    0.000000   -1.350000
      4          9           0       -0.000000   -1.702000   -1.350000
 ---------------------------------------------------------------------
 Rotational constants (GHZ):           4.5914620           1.8680780           1.3278359
 Standard basis: Aug-CC-pVTZ (5D, 7F)
 There are    85 symmetry adapted cartesian basis functions of A1  symmetry.
 There are    28 symmetry adapted cartesian basis functions of A2  symmetry.
 There are    44 symmetry adapted cartesian basis functions of B1  symmetry.
 There are    63 symmetry adapted cartesian basis functions of B2  symmetry.
 There are    68 symmetry adapted basis functions of A1  symmetry.
 There are    26 symmetry adapted basis functions of A2  symmetry.
 There are    38 symmetry adapted basis functions of B1  symmetry.
 There are    52 symmetry adapted basis functions of B2  symmetry.
   184 basis functions,   290 primitive gaussians,   220 cartesian basis functions
    16 alpha electrons       16 beta electrons
       nuclear repulsion energy        50.3750031897 Hartrees.
 NAtoms=    4 NActive=    4 NUniq=    3 SFac= 1.78D+00 NAtFMM=   60 NAOKFM=F Big=F
 Integral buffers will be    131072 words long.
 Raffenetti 1 integral format.
 Two-electron integral symmetry is turned on.
 One-electron integrals computed using PRISM.
 NBasis=   184 RedAO= T EigKep=  2.56D-04  NBF=    68    26    38    52
 NBsUse=   184 1.00D-06 EigRej= -1.00D+00 NBFU=    68    26    38    52
 ExpMin= 7.59D-03 ExpMax= 1.95D+04 ExpMxC= 6.65D+02 IAcc=3 IRadAn=         5 AccDes= 0.00D+00
 Harris functional with IExCor=  205 and IRadAn=       5 diagonalized for initial guess.
 HarFok:  IExCor=  205 AccDes= 0.00D+00 IRadAn=         5 IDoV= 1 UseB2=F ITyADJ=14
 ICtDFT=  3500011 ScaDFX=  1.000000  1.000000  1.000000  1.000000
 FoFCou: FMM=F IPFlag=           0 FMFlag=      100000 FMFlg1=           0
         NFxFlg=           0 DoJE=T BraDBF=F KetDBF=T FulRan=T
         wScrn=  0.000000 ICntrl=       500 IOpCl=  0 I1Cent=   200000004 NGrid=           0
         NMat0=    1 NMatS0=      1 NMatT0=    0 NMatD0=    1 NMtDS0=    0 NMtDT0=    0
 Petite list used in FoFCou.
 Initial guess orbital symmetries:
       Occupied  (A1) (B2) (A1) (A1) (B2) (A1) (A1) (B2) (A1) (A1)
                 (B1) (B2) (A2) (A1) (B2) (B1)
       Virtual   (A1) (A1) (B1) (B2) (A1) (A1) (B1) (B2) (A1) (B1)
                 (B2) (A2) (A1) (A1) (B1) (A1) (B2) (A1) (B2) (B1)
                 (A1) (B1) (B2) (A1) (B1) (A2) (B2) (A1) (A2) (A1)
                 (B2) (B1) (A1) (A2) (B1) (B2) (B2) (A1) (A1) (A1)
                 (A1) (B1) (B2) (B2) (A1) (B2) (B1) (A2) (A2) (A1)
                 (B2) (B1) (A2) (B2) (A1) (B1) (A1) (A1) (B2) (B1)
                 (A1) (A1) (B1) (B1) (B2) (A1) (A2) (B2) (B1) (A1)
                 (A2) (B2) (A1) (B2) (A1) (B1) (A1) (A2) (B2) (A1)
                 (B2) (B2) (A1) (A1) (A1) (B1) (A2) (A1) (B2) (B1)
                 (B1) (A1) (A2) (B2) (A2) (A1) (B2) (A2) (B2) (B1)
                 (A1) (B2) (B1) (B2) (A1) (A2) (B1) (B2) (A1) (B1)
                 (A1) (A1) (B1) (A2) (B2) (A1) (A2) (B2) (B2) (A1)
                 (B1) (B2) (A1) (A2) (B1) (B2) (A1) (A1) (B2) (A2)
                 (B2) (B1) (A1) (B1) (A1) (B1) (B2) (A2) (A1) (B2)
                 (B1) (A1) (B1) (A1) (A2) (B2) (A2) (B2) (A1) (B2)
                 (A1) (B1) (A2) (A1) (B1) (B2) (A1) (A2) (B2) (B1)
                 (A1) (B2) (A1) (A2) (B2) (A1) (B2) (A1)
 The electronic state of the initial guess is 1-A1.
 Keep R1 ints in memory in symmetry-blocked form, NReq=181483703.
 Requested convergence on RMS density matrix=1.00D-08 within 128 cycles.
 Requested convergence on MAX density matrix=1.00D-06.
 Requested convergence on             energy=1.00D-06.
 No special actions if energy rises.
 SCF Done:  E(RHF) =  -305.895159112     A.U. after   10 cycles
            NFock= 10  Conv=0.73D-08     -V/T= 2.0001
 ExpMin= 7.59D-03 ExpMax= 1.95D+04 ExpMxC= 6.65D+02 IAcc=3 IRadAn=         5 AccDes= 0.00D+00
 HarFok:  IExCor=  205 AccDes= 0.00D+00 IRadAn=         5 IDoV=-2 UseB2=F ITyADJ=14
 ICtDFT= 12500011 ScaDFX=  1.000000  1.000000  1.000000  1.000000
 Range of M.O.s used for correlation:     5   184
 NBasis=   184 NAE=    16 NBE=    16 NFC=     4 NFV=     0
 NROrb=    180 NOA=    12 NOB=    12 NVA=   168 NVB=   168

 **** Warning!!: The largest alpha MO coefficient is  0.22087350D+02

 Semi-Direct transformation.
 ModeAB=           4 MOrb=            12 LenV=    4025587105
 LASXX=      8444399 LTotXX=     8444399 LenRXX=    17045430
 LTotAB=     8601031 MaxLAS=    30561840 LenRXY=           0
 NonZer=    25489829 LenScr=    39014400 LnRSAI=    30561840
 LnScr1=    46602240 LExtra=           0 Total=    133223910
 MaxDsk=          -1 SrtSym=           T ITran=            4
 JobTyp=0 Pass  1:  I=   1 to  12.
 (rs|ai) integrals will be sorted in core.
 Spin components of T(2) and E(2):
     alpha-alpha T2 =       0.2600841563D-01 E2=     -0.1153617102D+00
     alpha-beta  T2 =       0.1331538516D+00 E2=     -0.6428545640D+00
     beta-beta   T2 =       0.2600841563D-01 E2=     -0.1153617102D+00
 ANorm=    0.1088655447D+01
 E2 =    -0.8735779844D+00 EUMP2 =    -0.30676873709655D+03
 Keep R2 and R3 ints in memory in symmetry-blocked form, NReq=181490657.
 CIDS: In Core Option IDoMem=           1.
 Iterations=  50 Convergence= 0.100D-06
 Produce multiple copies of IABC intergrals
 Iteration Nr.   1
 **********************
 DD1Dir will call FoFMem   1 times, MxPair=       156
 NAB=    78 NAA=     0 NBB=     0.
 MP4(R+Q)=  0.91009601D-02
 E3=        0.28029269D-01        EUMP3=      -0.30674070783D+03
 E4(DQ)=   -0.77637641D-02        UMP4(DQ)=   -0.30674847159D+03
 E4(SDQ)=  -0.20537829D-01        UMP4(SDQ)=  -0.30676124566D+03
 DE(Corr)= -0.83534222     E(Corr)=     -306.73050133    
 NORM(A)=   0.10821818D+01
 Iteration Nr.   2
 **********************
 DD1Dir will call FoFMem   1 times, MxPair=       156
 NAB=    78 NAA=     0 NBB=     0.
 DE(Corr)= -0.85999045     E(CORR)=     -306.75514956     Delta=-2.46D-02
 NORM(A)=   0.10879128D+01
 Iteration Nr.   3
 **********************
 DD1Dir will call FoFMem   1 times, MxPair=       156
 NAB=    78 NAA=     0 NBB=     0.
 DE(Corr)= -0.85639230     E(CORR)=     -306.75155141     Delta= 3.60D-03
 NORM(A)=   0.10905898D+01
 Iteration Nr.   4
 **********************
 DD1Dir will call FoFMem   1 times, MxPair=       156
 NAB=    78 NAA=     0 NBB=     0.
 DE(Corr)= -0.85849171     E(CORR)=     -306.75365083     Delta=-2.10D-03
 NORM(A)=   0.10915768D+01
 Iteration Nr.   5
 **********************
 DD1Dir will call FoFMem   1 times, MxPair=       156
 NAB=    78 NAA=     0 NBB=     0.
 DE(Corr)= -0.85871620     E(CORR)=     -306.75387532     Delta=-2.24D-04
 NORM(A)=   0.10919085D+01
 Iteration Nr.   6
 **********************
 DD1Dir will call FoFMem   1 times, MxPair=       156
 NAB=    78 NAA=     0 NBB=     0.
 DE(Corr)= -0.85873869     E(CORR)=     -306.75389781     Delta=-2.25D-05
 NORM(A)=   0.10920490D+01
 Iteration Nr.   7
 **********************
 DD1Dir will call FoFMem   1 times, MxPair=       156
 NAB=    78 NAA=     0 NBB=     0.
 DE(Corr)= -0.85873638     E(CORR)=     -306.75389549     Delta= 2.31D-06
 NORM(A)=   0.10920974D+01
 Iteration Nr.   8
 **********************
 DD1Dir will call FoFMem   1 times, MxPair=       156
 NAB=    78 NAA=     0 NBB=     0.
 DE(Corr)= -0.85875453     E(CORR)=     -306.75391364     Delta=-1.81D-05
 NORM(A)=   0.10921244D+01
 Iteration Nr.   9
 **********************
 DD1Dir will call FoFMem   1 times, MxPair=       156
 NAB=    78 NAA=     0 NBB=     0.
 DE(Corr)= -0.85874089     E(CORR)=     -306.75390000     Delta= 1.36D-05
 NORM(A)=   0.10921440D+01
 Iteration Nr.  10
 **********************
 DD1Dir will call FoFMem   1 times, MxPair=       156
 NAB=    78 NAA=     0 NBB=     0.
 DE(Corr)= -0.85874235     E(CORR)=     -306.75390146     Delta=-1.46D-06
 NORM(A)=   0.10921423D+01
 Iteration Nr.  11
 **********************
 DD1Dir will call FoFMem   1 times, MxPair=       156
 NAB=    78 NAA=     0 NBB=     0.
 DE(Corr)= -0.85874210     E(CORR)=     -306.75390121     Delta= 2.54D-07
 NORM(A)=   0.10921401D+01
 Iteration Nr.  12
 **********************
 DD1Dir will call FoFMem   1 times, MxPair=       156
 NAB=    78 NAA=     0 NBB=     0.
 DE(Corr)= -0.85873985     E(CORR)=     -306.75389896     Delta= 2.25D-06
 NORM(A)=   0.10921378D+01
 Iteration Nr.  13
 **********************
 DD1Dir will call FoFMem   1 times, MxPair=       156
 NAB=    78 NAA=     0 NBB=     0.
 DE(Corr)= -0.85873910     E(CORR)=     -306.75389821     Delta= 7.50D-07
 NORM(A)=   0.10921353D+01
 Iteration Nr.  14
 **********************
 DD1Dir will call FoFMem   1 times, MxPair=       156
 NAB=    78 NAA=     0 NBB=     0.
 DE(Corr)= -0.85873904     E(CORR)=     -306.75389815     Delta= 5.67D-08
 NORM(A)=   0.10921337D+01
 Iteration Nr.  15
 **********************
 DD1Dir will call FoFMem   1 times, MxPair=       156
 NAB=    78 NAA=     0 NBB=     0.
 DE(Corr)= -0.85873878     E(CORR)=     -306.75389789     Delta= 2.64D-07
 NORM(A)=   0.10921328D+01
 Iteration Nr.  16
 **********************
 DD1Dir will call FoFMem   1 times, MxPair=       156
 NAB=    78 NAA=     0 NBB=     0.
 DE(Corr)= -0.85873870     E(CORR)=     -306.75389781     Delta= 7.66D-08
 NORM(A)=   0.10921322D+01
 Iteration Nr.  17
 **********************
 DD1Dir will call FoFMem   1 times, MxPair=       156
 NAB=    78 NAA=     0 NBB=     0.
 DE(Corr)= -0.85873871     E(CORR)=     -306.75389782     Delta=-1.28D-08
 NORM(A)=   0.10921318D+01
 Iteration Nr.  18
 **********************
 DD1Dir will call FoFMem   1 times, MxPair=       156
 NAB=    78 NAA=     0 NBB=     0.
 DE(Corr)= -0.85873868     E(CORR)=     -306.75389779     Delta= 2.98D-08
 NORM(A)=   0.10921317D+01
 Wavefunction amplitudes converged. E(Corr)=     -306.75389779    
 Largest amplitude= 3.60D-02
 Discarding MO integrals.

 **********************************************************************

            Population analysis using the SCF Density.

 **********************************************************************

 Orbital symmetries:
       Occupied  (B2) (A1) (A1) (A1) (B2) (A1) (A1) (B2) (A1) (B1)
                 (A1) (A2) (B2) (B2) (B1) (A1)
       Virtual   (A1) (B2) (B1) (A1) (A1) (B2) (B1) (A1) (A2) (A1)
                 (B1) (B2) (A1) (B2) (B1) (A1) (A1) (B1) (A1) (B2)
                 (A1) (B1) (B2) (A1) (A2) (B1) (A2) (B2) (A1) (A1)
                 (B1) (B2) (A2) (B2) (A1) (B2) (A1) (B1) (B1) (A1)
                 (A1) (A1) (B2) (B2) (B1) (A1) (A2) (B2) (B2) (A2)
                 (B1) (A1) (A1) (A2) (A1) (B2) (A1) (B1) (B1) (B2)
                 (A1) (B1) (A1) (B1) (A1) (A2) (B2) (A2) (B2) (A1)
                 (B1) (B2) (A1) (B2) (A1) (B1) (A1) (A2) (B2) (A1)
                 (B2) (B2) (A1) (A1) (B1) (A1) (A2) (B2) (B1) (B2)
                 (A1) (A2) (A1) (B1) (B2) (A2) (A1) (A2) (B1) (B2)
                 (A1) (B1) (B2) (A1) (A2) (B1) (B1) (A1) (B2) (B2)
                 (A1) (A1) (A2) (B2) (B1) (A1) (A2) (B2) (B2) (A1)
                 (B1) (B2) (A1) (A2) (B2) (B1) (A1) (A1) (B2) (A2)
                 (B2) (B1) (A1) (B1) (A1) (B1) (B2) (A1) (A2) (B2)
                 (B1) (A1) (B1) (A1) (A2) (B2) (A2) (B2) (A1) (B2)
                 (B1) (A1) (B2) (A2) (A1) (B1) (A2) (B2) (A1) (B1)
                 (A1) (B2) (A1) (A2) (B2) (A1) (B2) (A1)
 The electronic state is 1-A1.
 Alpha  occ. eigenvalues --  -25.83156 -25.83156 -25.73239  -2.03891  -1.09137
 Alpha  occ. eigenvalues --   -1.08776  -0.97446  -0.21323  -0.20100  -0.19182
 Alpha  occ. eigenvalues --   -0.19140  -0.18709  -0.18678  -0.07942  -0.07937
 Alpha  occ. eigenvalues --   -0.07926
 Alpha virt. eigenvalues --    0.15091   0.15849   0.16023   0.19434   0.26842
 Alpha virt. eigenvalues --    0.26932   0.27240   0.31386   0.33419   0.34396
 Alpha virt. eigenvalues --    0.34923   0.35558   0.37383   0.46400   0.46444
 Alpha virt. eigenvalues --    0.46772   0.50721   0.51590   0.52025   0.52276
 Alpha virt. eigenvalues --    0.54961   0.55288   0.56675   0.58231   0.60719
 Alpha virt. eigenvalues --    0.61071   0.61254   0.62074   0.62645   0.63426
 Alpha virt. eigenvalues --    0.63772   0.64097   0.69832   0.70354   0.72765
 Alpha virt. eigenvalues --    0.74970   0.76232   0.79670   0.81897   0.83498
 Alpha virt. eigenvalues --    0.83962   0.88314   0.91275   1.13724   1.15273
 Alpha virt. eigenvalues --    1.15303   1.22620   1.22964   1.25674   1.25863
 Alpha virt. eigenvalues --    1.26667   1.28984   1.30272   1.33329   1.33392
 Alpha virt. eigenvalues --    1.34111   1.35491   1.35511   1.37319   1.40363
 Alpha virt. eigenvalues --    1.43587   1.48958   1.50482   1.50570   1.52523
 Alpha virt. eigenvalues --    1.54130   1.54990   1.55890   1.56124   1.61217
 Alpha virt. eigenvalues --    1.64401   1.64683   1.68566   1.75088   1.95265
 Alpha virt. eigenvalues --    1.99205   2.00748   2.00763   2.01298   2.32980
 Alpha virt. eigenvalues --    2.41310   2.88857   2.94967   3.15009   3.31413
 Alpha virt. eigenvalues --    3.31538   3.33039   3.33041   3.35292   3.35670
 Alpha virt. eigenvalues --    3.35703   3.36356   3.36382   3.36402   3.37101
 Alpha virt. eigenvalues --    3.37160   3.38645   3.38861   3.39982   3.41873
 Alpha virt. eigenvalues --    3.42625   3.43285   3.43287   3.43384   3.43401
 Alpha virt. eigenvalues --    3.43596   3.43666   3.43717   3.44232   3.46079
 Alpha virt. eigenvalues --    3.46316   3.52545   3.64331   3.64351   3.66360
 Alpha virt. eigenvalues --    3.67257   3.75868   3.76221   4.06013   4.78105
 Alpha virt. eigenvalues --    5.78624   5.78913   5.80677   5.90675   5.90966
 Alpha virt. eigenvalues --    5.91182   5.91830   6.15841   6.32769   9.26428
 Alpha virt. eigenvalues --    9.26430   9.28211   9.28218   9.30664   9.30695
 Alpha virt. eigenvalues --    9.36924   9.36925   9.36954   9.36957   9.37032
 Alpha virt. eigenvalues --    9.37058   9.37204   9.38385   9.38657   9.39943
 Alpha virt. eigenvalues --    9.40059   9.40852   9.41063   9.43247   9.49477
 Alpha virt. eigenvalues --    9.78646   9.78737   9.84589   9.84626   9.84739
 Alpha virt. eigenvalues --    9.85541   9.85682   9.87193   9.87692   9.88481
 Alpha virt. eigenvalues --    9.89709   9.90274   9.95212   9.95764   9.96049
 Alpha virt. eigenvalues --   11.43116  12.92290  13.06319
          Condensed to atoms (all electrons):
               1          2          3          4
     1  F   10.013601   0.000175  -0.007277   0.000175
     2  F    0.000175  10.000386  -0.078307   0.049522
     3  Li  -0.007277  -0.078307   2.213667  -0.078307
     4  F    0.000175   0.049522  -0.078307  10.000386
 Mulliken charges:
               1
     1  F   -1.006673
     2  F   -0.971776
     3  Li   0.950224
     4  F   -0.971776
 Sum of Mulliken charges =  -2.00000
 Mulliken charges with hydrogens summed into heavy atoms:
               1
     1  F   -1.006673
     2  F   -0.971776
     3  Li   0.950224
     4  F   -0.971776
 Electronic spatial extent (au):  <R**2>=            750.9302
 Charge=             -2.0000 electrons
 Dipole moment (field-independent basis, Debye):
    X=              0.0000    Y=              0.0000    Z=             -8.4152  Tot=              8.4152
 Quadrupole moment (field-independent basis, Debye-Ang):
   XX=            -21.1571   YY=            -45.7966   ZZ=            -79.8534
   XY=             -0.0000   XZ=             -0.0000   YZ=              0.0000
 Traceless Quadrupole moment (field-independent basis, Debye-Ang):
   XX=             27.7786   YY=              3.1391   ZZ=            -30.9177
   XY=             -0.0000   XZ=             -0.0000   YZ=              0.0000
 Octapole moment (field-independent basis, Debye-Ang**2):
  XXX=              0.0000  YYY=              0.0000  ZZZ=           -152.6497  XYY=              0.0000
  XXY=              0.0000  XXZ=             -3.6665  XZZ=              0.0000  YZZ=             -0.0000
  YYZ=             30.6743  XYZ=              0.0000
 Hexadecapole moment (field-independent basis, Debye-Ang**3):
 XXXX=            -20.8461 YYYY=           -314.6871 ZZZZ=          -1124.8430 XXXY=             -0.0000
 XXXZ=             -0.0000 YYYX=             -0.0000 YYYZ=              0.0000 ZZZX=             -0.0000
 ZZZY=             -0.0000 XXYY=            -45.1403 XXZZ=           -105.2147 YYZZ=           -190.8542
 XXYZ=              0.0000 YYXZ=             -0.0000 ZZXY=             -0.0000
 N-N= 5.037500318968D+01 E-N=-8.503973102836D+02  KE= 3.058517193209D+02
 Symmetry A1   KE= 1.891185703678D+02
 Symmetry A2   KE= 5.803072593803D+00
 Symmetry B1   KE= 1.139137024414D+01
 Symmetry B2   KE= 9.953870611514D+01
 1\1\GINC-HELIOS\SP\RCCSD-FC\Aug-CC-pVTZ\F3Li1(2-)\POHL\19-May-2025\0\\
 # CCSD/aug-cc-pVTZ SP\\Single-point energy of X- + Y- at fixed distanc
 e R\\-2,1\F,0,0.,0.,4.5\F,0,-1.702,0.,0.\Li,0,0.,0.,0.\F,0,1.702,0.,0.
 \\Version=EM64L-G16RevB.01\State=1-A1\HF=-305.8951591\MP2=-306.7687371
 \MP3=-306.7407078\MP4D=-306.7575726\MP4DQ=-306.7484716\MP4SDQ=-306.761
 2457\CCSD=-306.7538978\RMSD=7.314e-09\PG=C02V [C2(Li1F1),SGV(F2)]\\@


 Change starts when someone sees the next step.
                            -- William Drayton
 Job cpu time:       0 days  0 hours  9 minutes 45.0 seconds.
 Elapsed time:       0 days  0 hours  0 minutes 58.7 seconds.
 File lengths (MBytes):  RWF=   1065 Int=      0 D2E=      0 Chk=      3 Scr=      1
 Normal termination of Gaussian 16 at Mon May 19 13:21:34 2025.
