 Entering Gaussian System, Link 0=g16
 Initial command:
 /opt/g16/l1.exe "/home/pohl/scratches/g16/Gau-1631289.inp" -scrdir="/home/pohl/scratches/g16/"
 Entering Link 1 = /opt/g16/l1.exe PID=   1631291.
  
 Copyright (c) 1988-2017, Gaussian, Inc.  All Rights Reserved.
  
 This is part of the Gaussian(R) 16 program.  It is based on
 the Gaussian(R) 09 system (copyright 2009, Gaussian, Inc.),
 the Gaussian(R) 03 system (copyright 2003, Gaussian, Inc.),
 the Gaussian(R) 98 system (copyright 1998, Gaussian, Inc.),
 the Gaussian(R) 94 system (copyright 1995, Gaussian, Inc.),
 the Gaussian 92(TM) system (copyright 1992, Gaussian, Inc.),
 the Gaussian 90(TM) system (copyright 1990, Gaussian, Inc.),
 the Gaussian 88(TM) system (copyright 1988, Gaussian, Inc.),
 the Gaussian 86(TM) system (copyright 1986, Carnegie Mellon
 University), and the Gaussian 82(TM) system (copyright 1983,
 Carnegie Mellon University). Gaussian is a federally registered
 trademark of Gaussian, Inc.
  
 This software contains proprietary and confidential information,
 including trade secrets, belonging to Gaussian, Inc.
  
 This software is provided under written license and may be
 used, copied, transmitted, or stored only in accord with that
 written license.
  
 The following legend is applicable only to US Government
 contracts under FAR:
  
                    RESTRICTED RIGHTS LEGEND
  
 Use, reproduction and disclosure by the US Government is
 subject to restrictions as set forth in subparagraphs (a)
 and (c) of the Commercial Computer Software - Restricted
 Rights clause in FAR 52.227-19.
  
 Gaussian, Inc.
 340 Quinnipiac St., Bldg. 40, Wallingford CT 06492
  
  
 ---------------------------------------------------------------
 Warning -- This program may not be used in any manner that
 competes with the business of Gaussian, Inc. or will provide
 assistance to any competitor of Gaussian, Inc.  The licensee
 of this program is prohibited from giving any competitor of
 Gaussian, Inc. access to this program.  By using this program,
 the user acknowledges that Gaussian, Inc. is engaged in the
 business of creating and licensing software in the field of
 computational chemistry and represents and warrants to the
 licensee that it is not a competitor of Gaussian, Inc. and that
 it will not use this program in any manner prohibited above.
 ---------------------------------------------------------------
  

 Cite this work as:
 Gaussian 16, Revision B.01,
 M. J. Frisch, G. W. Trucks, H. B. Schlegel, G. E. Scuseria, 
 M. A. Robb, J. R. Cheeseman, G. Scalmani, V. Barone, 
 G. A. Petersson, H. Nakatsuji, X. Li, M. Caricato, A. V. Marenich, 
 J. Bloino, B. G. Janesko, R. Gomperts, B. Mennucci, H. P. Hratchian, 
 J. V. Ortiz, A. F. Izmaylov, J. L. Sonnenberg, D. Williams-Young, 
 F. Ding, F. Lipparini, F. Egidi, J. Goings, B. Peng, A. Petrone, 
 T. Henderson, D. Ranasinghe, V. G. Zakrzewski, J. Gao, N. Rega, 
 G. Zheng, W. Liang, M. Hada, M. Ehara, K. Toyota, R. Fukuda, 
 J. Hasegawa, M. Ishida, T. Nakajima, Y. Honda, O. Kitao, H. Nakai, 
 T. Vreven, K. Throssell, J. A. Montgomery, Jr., J. E. Peralta, 
 F. Ogliaro, M. J. Bearpark, J. J. Heyd, E. N. Brothers, K. N. Kudin, 
 V. N. Staroverov, T. A. Keith, R. Kobayashi, J. Normand, 
 K. Raghavachari, A. P. Rendell, J. C. Burant, S. S. Iyengar, 
 J. Tomasi, M. Cossi, J. M. Millam, M. Klene, C. Adamo, R. Cammi, 
 J. W. Ochterski, R. L. Martin, K. Morokuma, O. Farkas, 
 J. B. Foresman, and D. J. Fox, Gaussian, Inc., Wallingford CT, 2016.
 
 ******************************************
 Gaussian 16:  EM64L-G16RevB.01 20-Dec-2017
                19-May-2025 
 ******************************************
 %mem=30GB
 %nprocshared=10
 Will use up to   10 processors via shared memory.
 ---------------------
 # CCSD/aug-cc-pVTZ SP
 ---------------------
 1/38=1,172=1/1;
 2/12=2,17=6,18=5,40=1/2;
 3/5=16,6=1,7=10,11=9,25=1,30=1/1,2,3;
 4//1;
 5/5=2,38=5/2;
 8/6=4,9=120000,10=1/1,4;
 9/5=7/13;
 6/7=2,8=2,9=2,10=2/1;
 99/5=1,9=1/99;
 --------------------------------------------------
 Single-point energy of X- + Y- at fixed distance R
 --------------------------------------------------
 Symbolic Z-matrix:
 Charge = -2 Multiplicity = 1
 F                     0.        0.        5.5 
 F                    -1.702     0.        0. 
 Li                    0.        0.        0. 
 F                     1.702     0.        0. 
 
                          Input orientation:                          
 ---------------------------------------------------------------------
 Center     Atomic      Atomic             Coordinates (Angstroms)
 Number     Number       Type             X           Y           Z
 ---------------------------------------------------------------------
      1          9           0        0.000000    0.000000    5.500000
      2          9           0       -1.702000    0.000000    0.000000
      3          3           0        0.000000    0.000000    0.000000
      4          9           0        1.702000    0.000000    0.000000
 ---------------------------------------------------------------------
                    Distance matrix (angstroms):
                    1          2          3          4
     1  F    0.000000
     2  F    5.757326   0.000000
     3  Li   5.500000   1.702000   0.000000
     4  F    5.757326   3.404000   1.702000   0.000000
 Stoichiometry    F3Li(2-)
 Framework group  C2V[C2(LiF),SGV(F2)]
 Deg. of freedom     3
 Full point group                 C2V     NOp   4
 Largest Abelian subgroup         C2V     NOp   4
 Largest concise Abelian subgroup C2      NOp   2
                         Standard orientation:                         
 ---------------------------------------------------------------------
 Center     Atomic      Atomic             Coordinates (Angstroms)
 Number     Number       Type             X           Y           Z
 ---------------------------------------------------------------------
      1          9           0       -0.000000    0.000000    3.850000
      2          9           0        0.000000    1.702000   -1.650000
      3          3           0        0.000000   -0.000000   -1.650000
      4          9           0       -0.000000   -1.702000   -1.650000
 ---------------------------------------------------------------------
 Rotational constants (GHZ):           4.5914620           1.2505315           0.9828440
 Standard basis: Aug-CC-pVTZ (5D, 7F)
 There are    85 symmetry adapted cartesian basis functions of A1  symmetry.
 There are    28 symmetry adapted cartesian basis functions of A2  symmetry.
 There are    44 symmetry adapted cartesian basis functions of B1  symmetry.
 There are    63 symmetry adapted cartesian basis functions of B2  symmetry.
 There are    68 symmetry adapted basis functions of A1  symmetry.
 There are    26 symmetry adapted basis functions of A2  symmetry.
 There are    38 symmetry adapted basis functions of B1  symmetry.
 There are    52 symmetry adapted basis functions of B2  symmetry.
   184 basis functions,   290 primitive gaussians,   220 cartesian basis functions
    16 alpha electrons       16 beta electrons
       nuclear repulsion energy        46.8692611679 Hartrees.
 NAtoms=    4 NActive=    4 NUniq=    3 SFac= 1.78D+00 NAtFMM=   60 NAOKFM=F Big=F
 Integral buffers will be    131072 words long.
 Raffenetti 1 integral format.
 Two-electron integral symmetry is turned on.
 One-electron integrals computed using PRISM.
 NBasis=   184 RedAO= T EigKep=  2.55D-04  NBF=    68    26    38    52
 NBsUse=   184 1.00D-06 EigRej= -1.00D+00 NBFU=    68    26    38    52
 ExpMin= 7.59D-03 ExpMax= 1.95D+04 ExpMxC= 6.65D+02 IAcc=3 IRadAn=         5 AccDes= 0.00D+00
 Harris functional with IExCor=  205 and IRadAn=       5 diagonalized for initial guess.
 HarFok:  IExCor=  205 AccDes= 0.00D+00 IRadAn=         5 IDoV= 1 UseB2=F ITyADJ=14
 ICtDFT=  3500011 ScaDFX=  1.000000  1.000000  1.000000  1.000000
 FoFCou: FMM=F IPFlag=           0 FMFlag=      100000 FMFlg1=           0
         NFxFlg=           0 DoJE=T BraDBF=F KetDBF=T FulRan=T
         wScrn=  0.000000 ICntrl=       500 IOpCl=  0 I1Cent=   200000004 NGrid=           0
         NMat0=    1 NMatS0=      1 NMatT0=    0 NMatD0=    1 NMtDS0=    0 NMtDT0=    0
 Petite list used in FoFCou.
 Initial guess orbital symmetries:
       Occupied  (A1) (B2) (A1) (A1) (B2) (A1) (A1) (B2) (A1) (A1)
                 (B1) (B2) (A2) (A1) (B2) (B1)
       Virtual   (A1) (A1) (B1) (B2) (A1) (A1) (B1) (B2) (A1) (B1)
                 (B2) (A2) (A1) (A1) (B1) (A1) (A1) (B2) (B2) (B1)
                 (A1) (B1) (B2) (A1) (B1) (A2) (A1) (B2) (A2) (A1)
                 (B2) (B1) (A2) (B2) (A1) (B1) (A1) (B2) (A1) (A1)
                 (A1) (B1) (B2) (B2) (B2) (A2) (A1) (B1) (A2) (A1)
                 (B2) (B1) (A1) (A2) (B2) (A1) (B1) (A1) (B2) (B1)
                 (A1) (B1) (B2) (A1) (B1) (A2) (A1) (B2) (B1) (A1)
                 (A1) (A2) (B2) (B2) (A1) (B1) (A1) (A2) (B2) (A1)
                 (B2) (B2) (A1) (A1) (A1) (B1) (A2) (A1) (B1) (B2)
                 (A1) (B1) (A1) (A2) (B2) (A2) (B2) (A2) (B2) (B1)
                 (A1) (B2) (B1) (B2) (A2) (A1) (B1) (B2) (A1) (B1)
                 (A1) (A1) (B1) (A1) (A2) (B2) (A2) (B2) (B2) (A1)
                 (B1) (B2) (A1) (A2) (B1) (B2) (A1) (A1) (B2) (A2)
                 (B2) (B1) (A1) (B1) (A1) (B1) (B2) (A2) (A1) (B1)
                 (B2) (A1) (B1) (A1) (A2) (B2) (A2) (B2) (A1) (B2)
                 (A1) (B1) (A2) (A1) (B1) (B2) (A1) (A2) (B2) (B1)
                 (A1) (B2) (A1) (A2) (B2) (A1) (B2) (A1)
 The electronic state of the initial guess is 1-A1.
 Keep R1 ints in memory in symmetry-blocked form, NReq=181483703.
 Requested convergence on RMS density matrix=1.00D-08 within 128 cycles.
 Requested convergence on MAX density matrix=1.00D-06.
 Requested convergence on             energy=1.00D-06.
 No special actions if energy rises.
 SCF Done:  E(RHF) =  -305.909942846     A.U. after   10 cycles
            NFock= 10  Conv=0.62D-08     -V/T= 2.0002
 ExpMin= 7.59D-03 ExpMax= 1.95D+04 ExpMxC= 6.65D+02 IAcc=3 IRadAn=         5 AccDes= 0.00D+00
 HarFok:  IExCor=  205 AccDes= 0.00D+00 IRadAn=         5 IDoV=-2 UseB2=F ITyADJ=14
 ICtDFT= 12500011 ScaDFX=  1.000000  1.000000  1.000000  1.000000
 Range of M.O.s used for correlation:     5   184
 NBasis=   184 NAE=    16 NBE=    16 NFC=     4 NFV=     0
 NROrb=    180 NOA=    12 NOB=    12 NVA=   168 NVB=   168

 **** Warning!!: The largest alpha MO coefficient is  0.22194725D+02

 Semi-Direct transformation.
 ModeAB=           4 MOrb=            12 LenV=    4025590862
 LASXX=      8444399 LTotXX=     8444399 LenRXX=    17045430
 LTotAB=     8601031 MaxLAS=    29741040 LenRXY=           0
 NonZer=    25489829 LenScr=    39014400 LnRSAI=    29741040
 LnScr1=    45375488 LExtra=           0 Total=    131176358
 MaxDsk=          -1 SrtSym=           T ITran=            4
 JobTyp=0 Pass  1:  I=   1 to  12.
 (rs|ai) integrals will be sorted in core.
 Spin components of T(2) and E(2):
     alpha-alpha T2 =       0.2597099721D-01 E2=     -0.1153088029D+00
     alpha-beta  T2 =       0.1330011269D+00 E2=     -0.6426514626D+00
     beta-beta   T2 =       0.2597099721D-01 E2=     -0.1153088029D+00
 ANorm=    0.1088550927D+01
 E2 =    -0.8732690683D+00 EUMP2 =    -0.30678321191438D+03
 Keep R2 and R3 ints in memory in symmetry-blocked form, NReq=181490657.
 CIDS: In Core Option IDoMem=           1.
 Iterations=  50 Convergence= 0.100D-06
 Produce multiple copies of IABC intergrals
 Iteration Nr.   1
 **********************
 DD1Dir will call FoFMem   1 times, MxPair=       156
 NAB=    78 NAA=     0 NBB=     0.
 MP4(R+Q)=  0.90796892D-02
 E3=        0.27911301D-01        EUMP3=      -0.30675530061D+03
 E4(DQ)=   -0.77361137D-02        UMP4(DQ)=   -0.30676303673D+03
 E4(SDQ)=  -0.20407853D-01        UMP4(SDQ)=  -0.30677570847D+03
 DE(Corr)= -0.83518634     E(Corr)=     -306.74512919    
 NORM(A)=   0.10820310D+01
 Iteration Nr.   2
 **********************
 DD1Dir will call FoFMem   1 times, MxPair=       156
 NAB=    78 NAA=     0 NBB=     0.
 DE(Corr)= -0.85969656     E(CORR)=     -306.76963941     Delta=-2.45D-02
 NORM(A)=   0.10877598D+01
 Iteration Nr.   3
 **********************
 DD1Dir will call FoFMem   1 times, MxPair=       156
 NAB=    78 NAA=     0 NBB=     0.
 DE(Corr)= -0.85617025     E(CORR)=     -306.76611310     Delta= 3.53D-03
 NORM(A)=   0.10903522D+01
 Iteration Nr.   4
 **********************
 DD1Dir will call FoFMem   1 times, MxPair=       156
 NAB=    78 NAA=     0 NBB=     0.
 DE(Corr)= -0.85824061     E(CORR)=     -306.76818346     Delta=-2.07D-03
 NORM(A)=   0.10913412D+01
 Iteration Nr.   5
 **********************
 DD1Dir will call FoFMem   1 times, MxPair=       156
 NAB=    78 NAA=     0 NBB=     0.
 DE(Corr)= -0.85845806     E(CORR)=     -306.76840091     Delta=-2.17D-04
 NORM(A)=   0.10916122D+01
 Iteration Nr.   6
 **********************
 DD1Dir will call FoFMem   1 times, MxPair=       156
 NAB=    78 NAA=     0 NBB=     0.
 DE(Corr)= -0.85847481     E(CORR)=     -306.76841766     Delta=-1.68D-05
 NORM(A)=   0.10917287D+01
 Iteration Nr.   7
 **********************
 DD1Dir will call FoFMem   1 times, MxPair=       156
 NAB=    78 NAA=     0 NBB=     0.
 DE(Corr)= -0.85847224     E(CORR)=     -306.76841508     Delta= 2.58D-06
 NORM(A)=   0.10917618D+01
 Iteration Nr.   8
 **********************
 DD1Dir will call FoFMem   1 times, MxPair=       156
 NAB=    78 NAA=     0 NBB=     0.
 DE(Corr)= -0.85848659     E(CORR)=     -306.76842943     Delta=-1.43D-05
 NORM(A)=   0.10917786D+01
 Iteration Nr.   9
 **********************
 DD1Dir will call FoFMem   1 times, MxPair=       156
 NAB=    78 NAA=     0 NBB=     0.
 DE(Corr)= -0.85847543     E(CORR)=     -306.76841828     Delta= 1.12D-05
 NORM(A)=   0.10917900D+01
 Iteration Nr.  10
 **********************
 DD1Dir will call FoFMem   1 times, MxPair=       156
 NAB=    78 NAA=     0 NBB=     0.
 DE(Corr)= -0.85847656     E(CORR)=     -306.76841941     Delta=-1.13D-06
 NORM(A)=   0.10917880D+01
 Iteration Nr.  11
 **********************
 DD1Dir will call FoFMem   1 times, MxPair=       156
 NAB=    78 NAA=     0 NBB=     0.
 DE(Corr)= -0.85847604     E(CORR)=     -306.76841889     Delta= 5.22D-07
 NORM(A)=   0.10917865D+01
 Iteration Nr.  12
 **********************
 DD1Dir will call FoFMem   1 times, MxPair=       156
 NAB=    78 NAA=     0 NBB=     0.
 DE(Corr)= -0.85847468     E(CORR)=     -306.76841753     Delta= 1.36D-06
 NORM(A)=   0.10917847D+01
 Iteration Nr.  13
 **********************
 DD1Dir will call FoFMem   1 times, MxPair=       156
 NAB=    78 NAA=     0 NBB=     0.
 DE(Corr)= -0.85847415     E(CORR)=     -306.76841700     Delta= 5.25D-07
 NORM(A)=   0.10917832D+01
 Iteration Nr.  14
 **********************
 DD1Dir will call FoFMem   1 times, MxPair=       156
 NAB=    78 NAA=     0 NBB=     0.
 DE(Corr)= -0.85847408     E(CORR)=     -306.76841693     Delta= 7.34D-08
 NORM(A)=   0.10917823D+01
 Iteration Nr.  15
 **********************
 DD1Dir will call FoFMem   1 times, MxPair=       156
 NAB=    78 NAA=     0 NBB=     0.
 DE(Corr)= -0.85847394     E(CORR)=     -306.76841678     Delta= 1.43D-07
 NORM(A)=   0.10917817D+01
 Iteration Nr.  16
 **********************
 DD1Dir will call FoFMem   1 times, MxPair=       156
 NAB=    78 NAA=     0 NBB=     0.
 DE(Corr)= -0.85847390     E(CORR)=     -306.76841674     Delta= 4.16D-08
 NORM(A)=   0.10917814D+01
 Wavefunction amplitudes converged. E(Corr)=     -306.76841674    
 Largest amplitude= 3.63D-02
 Discarding MO integrals.

 **********************************************************************

            Population analysis using the SCF Density.

 **********************************************************************

 Orbital symmetries:
       Occupied  (B2) (A1) (A1) (A1) (B2) (A1) (A1) (B2) (A1) (B1)
                 (A1) (A2) (B2) (B2) (B1) (A1)
       Virtual   (A1) (B2) (B1) (A1) (A1) (B2) (B1) (A1) (A2) (A1)
                 (B1) (B2) (A1) (B1) (B2) (A1) (A1) (B1) (B2) (A1)
                 (B1) (A1) (B2) (A1) (A1) (A2) (B1) (A2) (B2) (B1)
                 (A1) (B2) (A2) (B2) (A1) (B2) (A1) (B1) (A1) (B1)
                 (A1) (A1) (B2) (B2) (B1) (A1) (A2) (B2) (A2) (B2)
                 (B1) (A1) (A1) (A2) (A1) (B2) (B1) (A1) (B1) (B2)
                 (A1) (B1) (A1) (B1) (A1) (A2) (B2) (A2) (B2) (A1)
                 (B1) (B2) (A1) (B2) (A1) (B1) (A1) (A2) (B2) (A1)
                 (B2) (B2) (A1) (A1) (B1) (A1) (A2) (B2) (B1) (A1)
                 (B1) (A1) (B2) (A2) (B2) (A2) (A1) (A2) (B1) (B2)
                 (A1) (B1) (B2) (B1) (A1) (A2) (A1) (B1) (B2) (A1)
                 (B2) (A1) (A2) (B2) (B1) (A1) (A2) (B2) (B2) (A1)
                 (B1) (B2) (A1) (A2) (B2) (B1) (A1) (A1) (B2) (A2)
                 (B2) (B1) (A1) (B1) (A1) (B1) (B2) (A1) (A2) (B1)
                 (B2) (A1) (B1) (A1) (A2) (B2) (A2) (B2) (A1) (B2)
                 (B1) (A1) (A2) (A1) (B2) (B1) (A1) (A2) (B2) (B1)
                 (A1) (B2) (A1) (A2) (B2) (A1) (B2) (A1)
 The electronic state is 1-A1.
 Alpha  occ. eigenvalues --  -25.84868 -25.84868 -25.74642  -2.05797  -1.10857
 Alpha  occ. eigenvalues --   -1.10495  -0.98862  -0.23040  -0.21815  -0.20898
 Alpha  occ. eigenvalues --   -0.20874  -0.20421  -0.20404  -0.09356  -0.09354
 Alpha  occ. eigenvalues --   -0.09351
 Alpha virt. eigenvalues --    0.14714   0.15580   0.15688   0.19661   0.26071
 Alpha virt. eigenvalues --    0.26219   0.26399   0.30204   0.32373   0.33429
 Alpha virt. eigenvalues --    0.33535   0.34585   0.36403   0.44967   0.45003
 Alpha virt. eigenvalues --    0.45057   0.48707   0.50357   0.50941   0.51599
 Alpha virt. eigenvalues --    0.52854   0.53821   0.54025   0.56843   0.57722
 Alpha virt. eigenvalues --    0.59212   0.59271   0.59816   0.60021   0.60250
 Alpha virt. eigenvalues --    0.61340   0.62101   0.68144   0.68435   0.70010
 Alpha virt. eigenvalues --    0.72474   0.72759   0.77913   0.78918   0.80399
 Alpha virt. eigenvalues --    0.81511   0.85294   0.89583   1.12027   1.13495
 Alpha virt. eigenvalues --    1.13811   1.20945   1.21319   1.24075   1.24127
 Alpha virt. eigenvalues --    1.25035   1.25479   1.28605   1.31537   1.31587
 Alpha virt. eigenvalues --    1.32093   1.32398   1.33512   1.34035   1.34367
 Alpha virt. eigenvalues --    1.34680   1.47115   1.47928   1.48878   1.50275
 Alpha virt. eigenvalues --    1.52612   1.53398   1.54103   1.54152   1.58831
 Alpha virt. eigenvalues --    1.62189   1.62609   1.65068   1.73052   1.93664
 Alpha virt. eigenvalues --    1.97450   1.97903   1.99022   1.99329   2.22813
 Alpha virt. eigenvalues --    2.39507   2.87019   2.93013   3.13264   3.29742
 Alpha virt. eigenvalues --    3.29772   3.31304   3.31304   3.33580   3.33784
 Alpha virt. eigenvalues --    3.34657   3.34658   3.34765   3.34828   3.35512
 Alpha virt. eigenvalues --    3.35514   3.37064   3.37066   3.37363   3.37883
 Alpha virt. eigenvalues --    3.38359   3.41870   3.41870   3.41918   3.41924
 Alpha virt. eigenvalues --    3.41925   3.41938   3.41962   3.42000   3.42038
 Alpha virt. eigenvalues --    3.43686   3.50044   3.62610   3.62620   3.64668
 Alpha virt. eigenvalues --    3.64974   3.74214   3.74520   4.04246   4.75847
 Alpha virt. eigenvalues --    5.76556   5.76764   5.78867   5.88965   5.89230
 Alpha virt. eigenvalues --    5.89478   5.89810   6.14152   6.31004   9.24704
 Alpha virt. eigenvalues --    9.24704   9.26487   9.26488   9.28947   9.28953
 Alpha virt. eigenvalues --    9.35513   9.35513   9.35539   9.35539   9.35558
 Alpha virt. eigenvalues --    9.35568   9.35577   9.36662   9.36722   9.38210
 Alpha virt. eigenvalues --    9.38239   9.39137   9.39184   9.41511   9.47704
 Alpha virt. eigenvalues --    9.76943   9.76967   9.83241   9.83246   9.83390
 Alpha virt. eigenvalues --    9.83417   9.83822   9.83874   9.84029   9.86751
 Alpha virt. eigenvalues --    9.87014   9.88399   9.93428   9.94072   9.94281
 Alpha virt. eigenvalues --   11.22495  12.90167  13.03895
          Condensed to atoms (all electrons):
               1          2          3          4
     1  F   10.005486   0.000186  -0.003170   0.000186
     2  F    0.000186   9.981256  -0.064519   0.046008
     3  Li  -0.003170  -0.064519   2.203659  -0.064519
     4  F    0.000186   0.046008  -0.064519   9.981256
 Mulliken charges:
               1
     1  F   -1.002688
     2  F   -0.962931
     3  Li   0.928550
     4  F   -0.962931
 Sum of Mulliken charges =  -2.00000
 Mulliken charges with hydrogens summed into heavy atoms:
               1
     1  F   -1.002688
     2  F   -0.962931
     3  Li   0.928550
     4  F   -0.962931
 Electronic spatial extent (au):  <R**2>=            996.2327
 Charge=             -2.0000 electrons
 Dipole moment (field-independent basis, Debye):
    X=              0.0000    Y=             -0.0000    Z=            -10.4021  Tot=             10.4021
 Quadrupole moment (field-independent basis, Debye-Ang):
   XX=            -21.1238   YY=            -45.5755   ZZ=           -107.4462
   XY=             -0.0000   XZ=             -0.0000   YZ=              0.0000
 Traceless Quadrupole moment (field-independent basis, Debye-Ang):
   XX=             36.9247   YY=             12.4730   ZZ=            -49.3977
   XY=             -0.0000   XZ=             -0.0000   YZ=              0.0000
 Octapole moment (field-independent basis, Debye-Ang**2):
  XXX=              0.0000  YYY=             -0.0000  ZZZ=           -269.8371  XYY=              0.0000
  XXY=              0.0000  XXZ=             -4.5300  XZZ=              0.0000  YZZ=             -0.0000
  YYZ=             36.5935  XYZ=              0.0000
 Hexadecapole moment (field-independent basis, Debye-Ang**3):
 XXXX=            -20.6390 YYYY=           -312.4792 ZZZZ=          -2020.4422 XXXY=             -0.0000
 XXXZ=             -0.0000 YYYX=             -0.0000 YYYZ=             -0.0000 ZZZX=             -0.0000
 ZZZY=             -0.0000 XXYY=            -44.9118 XXZZ=           -152.5249 YYZZ=           -259.4614
 XXYZ=             -0.0000 YYXZ=             -0.0000 ZZXY=             -0.0000
 N-N= 4.686926116791D+01 E-N=-8.428956587866D+02  KE= 3.058553325828D+02
 Symmetry A1   KE= 1.891158308623D+02
 Symmetry A2   KE= 5.806677466980D+00
 Symmetry B1   KE= 1.139730675113D+01
 Symmetry B2   KE= 9.953551750237D+01
 1\1\GINC-HELIOS\SP\RCCSD-FC\Aug-CC-pVTZ\F3Li1(2-)\POHL\19-May-2025\0\\
 # CCSD/aug-cc-pVTZ SP\\Single-point energy of X- + Y- at fixed distanc
 e R\\-2,1\F,0,0.,0.,5.5\F,0,-1.702,0.,0.\Li,0,0.,0.,0.\F,0,1.702,0.,0.
 \\Version=EM64L-G16RevB.01\State=1-A1\HF=-305.9099428\MP2=-306.7832119
 \MP3=-306.7553006\MP4D=-306.7721164\MP4DQ=-306.7630367\MP4SDQ=-306.775
 7085\CCSD=-306.7684167\RMSD=6.249e-09\PG=C02V [C2(Li1F1),SGV(F2)]\\@


 TRUTH, IN SCIENCE, CAN BE DEFINED AS THE WORKING HYPOTHESIS 
 BEST FITTED TO OPEN THE WAY TO THE NEXT BETTER ONE.

                              -- KONRAD LORENZ
 Job cpu time:       0 days  0 hours  8 minutes 48.7 seconds.
 Elapsed time:       0 days  0 hours  0 minutes 53.0 seconds.
 File lengths (MBytes):  RWF=   1049 Int=      0 D2E=      0 Chk=      3 Scr=      1
 Normal termination of Gaussian 16 at Mon May 19 13:23:19 2025.
