 Entering Gaussian System, Link 0=g16
 Initial command:
 /opt/g16/l1.exe "/home/pohl/scratches/g16/Gau-1631426.inp" -scrdir="/home/pohl/scratches/g16/"
 Entering Link 1 = /opt/g16/l1.exe PID=   1631428.
  
 Copyright (c) 1988-2017, Gaussian, Inc.  All Rights Reserved.
  
 This is part of the Gaussian(R) 16 program.  It is based on
 the Gaussian(R) 09 system (copyright 2009, Gaussian, Inc.),
 the Gaussian(R) 03 system (copyright 2003, Gaussian, Inc.),
 the Gaussian(R) 98 system (copyright 1998, Gaussian, Inc.),
 the Gaussian(R) 94 system (copyright 1995, Gaussian, Inc.),
 the Gaussian 92(TM) system (copyright 1992, Gaussian, Inc.),
 the Gaussian 90(TM) system (copyright 1990, Gaussian, Inc.),
 the Gaussian 88(TM) system (copyright 1988, Gaussian, Inc.),
 the Gaussian 86(TM) system (copyright 1986, Carnegie Mellon
 University), and the Gaussian 82(TM) system (copyright 1983,
 Carnegie Mellon University). Gaussian is a federally registered
 trademark of Gaussian, Inc.
  
 This software contains proprietary and confidential information,
 including trade secrets, belonging to Gaussian, Inc.
  
 This software is provided under written license and may be
 used, copied, transmitted, or stored only in accord with that
 written license.
  
 The following legend is applicable only to US Government
 contracts under FAR:
  
                    RESTRICTED RIGHTS LEGEND
  
 Use, reproduction and disclosure by the US Government is
 subject to restrictions as set forth in subparagraphs (a)
 and (c) of the Commercial Computer Software - Restricted
 Rights clause in FAR 52.227-19.
  
 Gaussian, Inc.
 340 Quinnipiac St., Bldg. 40, Wallingford CT 06492
  
  
 ---------------------------------------------------------------
 Warning -- This program may not be used in any manner that
 competes with the business of Gaussian, Inc. or will provide
 assistance to any competitor of Gaussian, Inc.  The licensee
 of this program is prohibited from giving any competitor of
 Gaussian, Inc. access to this program.  By using this program,
 the user acknowledges that Gaussian, Inc. is engaged in the
 business of creating and licensing software in the field of
 computational chemistry and represents and warrants to the
 licensee that it is not a competitor of Gaussian, Inc. and that
 it will not use this program in any manner prohibited above.
 ---------------------------------------------------------------
  

 Cite this work as:
 Gaussian 16, Revision B.01,
 M. J. Frisch, G. W. Trucks, H. B. Schlegel, G. E. Scuseria, 
 M. A. Robb, J. R. Cheeseman, G. Scalmani, V. Barone, 
 G. A. Petersson, H. Nakatsuji, X. Li, M. Caricato, A. V. Marenich, 
 J. Bloino, B. G. Janesko, R. Gomperts, B. Mennucci, H. P. Hratchian, 
 J. V. Ortiz, A. F. Izmaylov, J. L. Sonnenberg, D. Williams-Young, 
 F. Ding, F. Lipparini, F. Egidi, J. Goings, B. Peng, A. Petrone, 
 T. Henderson, D. Ranasinghe, V. G. Zakrzewski, J. Gao, N. Rega, 
 G. Zheng, W. Liang, M. Hada, M. Ehara, K. Toyota, R. Fukuda, 
 J. Hasegawa, M. Ishida, T. Nakajima, Y. Honda, O. Kitao, H. Nakai, 
 T. Vreven, K. Throssell, J. A. Montgomery, Jr., J. E. Peralta, 
 F. Ogliaro, M. J. Bearpark, J. J. Heyd, E. N. Brothers, K. N. Kudin, 
 V. N. Staroverov, T. A. Keith, R. Kobayashi, J. Normand, 
 K. Raghavachari, A. P. Rendell, J. C. Burant, S. S. Iyengar, 
 J. Tomasi, M. Cossi, J. M. Millam, M. Klene, C. Adamo, R. Cammi, 
 J. W. Ochterski, R. L. Martin, K. Morokuma, O. Farkas, 
 J. B. Foresman, and D. J. Fox, Gaussian, Inc., Wallingford CT, 2016.
 
 ******************************************
 Gaussian 16:  EM64L-G16RevB.01 20-Dec-2017
                19-May-2025 
 ******************************************
 %mem=30GB
 %nprocshared=10
 Will use up to   10 processors via shared memory.
 ---------------------
 # CCSD/aug-cc-pVTZ SP
 ---------------------
 1/38=1,172=1/1;
 2/12=2,17=6,18=5,40=1/2;
 3/5=16,6=1,7=10,11=9,25=1,30=1/1,2,3;
 4//1;
 5/5=2,38=5/2;
 8/6=4,9=120000,10=1/1,4;
 9/5=7/13;
 6/7=2,8=2,9=2,10=2/1;
 99/5=1,9=1/99;
 --------------------------------------------------
 Single-point energy of X- + Y- at fixed distance R
 --------------------------------------------------
 Symbolic Z-matrix:
 Charge = -2 Multiplicity = 1
 F                     0.        0.        6. 
 F                    -1.702     0.        0. 
 Li                    0.        0.        0. 
 F                     1.702     0.        0. 
 
                          Input orientation:                          
 ---------------------------------------------------------------------
 Center     Atomic      Atomic             Coordinates (Angstroms)
 Number     Number       Type             X           Y           Z
 ---------------------------------------------------------------------
      1          9           0        0.000000    0.000000    6.000000
      2          9           0       -1.702000    0.000000    0.000000
      3          3           0        0.000000    0.000000    0.000000
      4          9           0        1.702000    0.000000    0.000000
 ---------------------------------------------------------------------
                    Distance matrix (angstroms):
                    1          2          3          4
     1  F    0.000000
     2  F    6.236730   0.000000
     3  Li   6.000000   1.702000   0.000000
     4  F    6.236730   3.404000   1.702000   0.000000
 Stoichiometry    F3Li(2-)
 Framework group  C2V[C2(LiF),SGV(F2)]
 Deg. of freedom     3
 Full point group                 C2V     NOp   4
 Largest Abelian subgroup         C2V     NOp   4
 Largest concise Abelian subgroup C2      NOp   2
                         Standard orientation:                         
 ---------------------------------------------------------------------
 Center     Atomic      Atomic             Coordinates (Angstroms)
 Number     Number       Type             X           Y           Z
 ---------------------------------------------------------------------
      1          9           0       -0.000000    0.000000    4.200000
      2          9           0        0.000000    1.702000   -1.800000
      3          3           0        0.000000    0.000000   -1.800000
      4          9           0       -0.000000   -1.702000   -1.800000
 ---------------------------------------------------------------------
 Rotational constants (GHZ):           4.5914620           1.0507939           0.8550977
 Standard basis: Aug-CC-pVTZ (5D, 7F)
 There are    85 symmetry adapted cartesian basis functions of A1  symmetry.
 There are    28 symmetry adapted cartesian basis functions of A2  symmetry.
 There are    44 symmetry adapted cartesian basis functions of B1  symmetry.
 There are    63 symmetry adapted cartesian basis functions of B2  symmetry.
 There are    68 symmetry adapted basis functions of A1  symmetry.
 There are    26 symmetry adapted basis functions of A2  symmetry.
 There are    38 symmetry adapted basis functions of B1  symmetry.
 There are    52 symmetry adapted basis functions of B2  symmetry.
   184 basis functions,   290 primitive gaussians,   220 cartesian basis functions
    16 alpha electrons       16 beta electrons
       nuclear repulsion energy        45.5082154866 Hartrees.
 NAtoms=    4 NActive=    4 NUniq=    3 SFac= 1.78D+00 NAtFMM=   60 NAOKFM=F Big=F
 Integral buffers will be    131072 words long.
 Raffenetti 1 integral format.
 Two-electron integral symmetry is turned on.
 One-electron integrals computed using PRISM.
 NBasis=   184 RedAO= T EigKep=  2.56D-04  NBF=    68    26    38    52
 NBsUse=   184 1.00D-06 EigRej= -1.00D+00 NBFU=    68    26    38    52
 ExpMin= 7.59D-03 ExpMax= 1.95D+04 ExpMxC= 6.65D+02 IAcc=3 IRadAn=         5 AccDes= 0.00D+00
 Harris functional with IExCor=  205 and IRadAn=       5 diagonalized for initial guess.
 HarFok:  IExCor=  205 AccDes= 0.00D+00 IRadAn=         5 IDoV= 1 UseB2=F ITyADJ=14
 ICtDFT=  3500011 ScaDFX=  1.000000  1.000000  1.000000  1.000000
 FoFCou: FMM=F IPFlag=           0 FMFlag=      100000 FMFlg1=           0
         NFxFlg=           0 DoJE=T BraDBF=F KetDBF=T FulRan=T
         wScrn=  0.000000 ICntrl=       500 IOpCl=  0 I1Cent=   200000004 NGrid=           0
         NMat0=    1 NMatS0=      1 NMatT0=    0 NMatD0=    1 NMtDS0=    0 NMtDT0=    0
 Petite list used in FoFCou.
 Initial guess orbital symmetries:
       Occupied  (A1) (B2) (A1) (A1) (B2) (A1) (A1) (B2) (A1) (A1)
                 (B1) (B2) (A2) (A1) (B2) (B1)
       Virtual   (A1) (A1) (B1) (B2) (A1) (A1) (B1) (B2) (A1) (B1)
                 (B2) (A2) (A1) (A1) (B1) (A1) (A1) (B2) (B2) (B1)
                 (A1) (B1) (B2) (A1) (B1) (A2) (B2) (A1) (A2) (B2)
                 (A1) (B1) (A1) (A2) (B2) (B1) (A1) (B2) (A1) (A1)
                 (B1) (A1) (B2) (B2) (B2) (A2) (B1) (A1) (A2) (A1)
                 (B2) (B1) (A1) (A2) (B2) (A1) (B1) (B2) (A1) (B1)
                 (A1) (B1) (A1) (B2) (B1) (A2) (A1) (B2) (B1) (A1)
                 (A1) (A2) (B2) (B2) (A1) (B1) (A1) (A2) (B2) (A1)
                 (B2) (B2) (A1) (A1) (B1) (A1) (A2) (A1) (B1) (B2)
                 (A1) (B1) (A1) (A2) (B2) (A2) (B2) (A2) (B2) (B1)
                 (A1) (B2) (B1) (B2) (A2) (A1) (B1) (B2) (A1) (B1)
                 (A1) (A1) (B1) (A1) (A2) (B2) (A2) (B2) (B2) (A1)
                 (B1) (B2) (A1) (A2) (B1) (B2) (A1) (A1) (B2) (A2)
                 (B2) (B1) (A1) (B1) (A1) (B1) (B2) (A2) (A1) (B1)
                 (B2) (A1) (B1) (A1) (A2) (B2) (A2) (B2) (A1) (B2)
                 (B1) (A1) (A2) (A1) (B1) (B2) (A1) (A2) (B2) (B1)
                 (A1) (B2) (A1) (A2) (B2) (A1) (B2) (A1)
 The electronic state of the initial guess is 1-A1.
 Keep R1 ints in memory in symmetry-blocked form, NReq=181483703.
 Requested convergence on RMS density matrix=1.00D-08 within 128 cycles.
 Requested convergence on MAX density matrix=1.00D-06.
 Requested convergence on             energy=1.00D-06.
 No special actions if energy rises.
 SCF Done:  E(RHF) =  -305.916073714     A.U. after   10 cycles
            NFock= 10  Conv=0.61D-08     -V/T= 2.0002
 ExpMin= 7.59D-03 ExpMax= 1.95D+04 ExpMxC= 6.65D+02 IAcc=3 IRadAn=         5 AccDes= 0.00D+00
 HarFok:  IExCor=  205 AccDes= 0.00D+00 IRadAn=         5 IDoV=-2 UseB2=F ITyADJ=14
 ICtDFT= 12500011 ScaDFX=  1.000000  1.000000  1.000000  1.000000
 Range of M.O.s used for correlation:     5   184
 NBasis=   184 NAE=    16 NBE=    16 NFC=     4 NFV=     0
 NROrb=    180 NOA=    12 NOB=    12 NVA=   168 NVB=   168

 **** Warning!!: The largest alpha MO coefficient is  0.22236030D+02

 Semi-Direct transformation.
 ModeAB=           4 MOrb=            12 LenV=    4025593124
 LASXX=      8444399 LTotXX=     8444399 LenRXX=    17045430
 LTotAB=     8601031 MaxLAS=    29080080 LenRXY=           0
 NonZer=    25489829 LenScr=    39014400 LnRSAI=    29080080
 LnScr1=    44388864 LExtra=           0 Total=    129528774
 MaxDsk=          -1 SrtSym=           T ITran=            4
 JobTyp=0 Pass  1:  I=   1 to  12.
 (rs|ai) integrals will be sorted in core.
 Spin components of T(2) and E(2):
     alpha-alpha T2 =       0.2596265135D-01 E2=     -0.1152971236D+00
     alpha-beta  T2 =       0.1329653956D+00 E2=     -0.6426023578D+00
     beta-beta   T2 =       0.2596265135D-01 E2=     -0.1152971236D+00
 ANorm=    0.1088526848D+01
 E2 =    -0.8731966049D+00 EUMP2 =    -0.30678927031917D+03
 Keep R2 and R3 ints in memory in symmetry-blocked form, NReq=181490657.
 CIDS: In Core Option IDoMem=           1.
 Iterations=  50 Convergence= 0.100D-06
 Produce multiple copies of IABC intergrals
 Iteration Nr.   1
 **********************
 DD1Dir will call FoFMem   1 times, MxPair=       156
 NAB=    78 NAA=     0 NBB=     0.
 MP4(R+Q)=  0.90756535D-02
 E3=        0.27883681D-01        EUMP3=      -0.30676138664D+03
 E4(DQ)=   -0.77297732D-02        UMP4(DQ)=   -0.30676911641D+03
 E4(SDQ)=  -0.20380104D-01        UMP4(SDQ)=  -0.30678176674D+03
 DE(Corr)= -0.83514853     E(Corr)=     -306.75122225    
 NORM(A)=   0.10819969D+01
 Iteration Nr.   2
 **********************
 DD1Dir will call FoFMem   1 times, MxPair=       156
 NAB=    78 NAA=     0 NBB=     0.
 DE(Corr)= -0.85963073     E(CORR)=     -306.77570444     Delta=-2.45D-02
 NORM(A)=   0.10877266D+01
 Iteration Nr.   3
 **********************
 DD1Dir will call FoFMem   1 times, MxPair=       156
 NAB=    78 NAA=     0 NBB=     0.
 DE(Corr)= -0.85611830     E(CORR)=     -306.77219202     Delta= 3.51D-03
 NORM(A)=   0.10902988D+01
 Iteration Nr.   4
 **********************
 DD1Dir will call FoFMem   1 times, MxPair=       156
 NAB=    78 NAA=     0 NBB=     0.
 DE(Corr)= -0.85818343     E(CORR)=     -306.77425715     Delta=-2.07D-03
 NORM(A)=   0.10912948D+01
 Iteration Nr.   5
 **********************
 DD1Dir will call FoFMem   1 times, MxPair=       156
 NAB=    78 NAA=     0 NBB=     0.
 DE(Corr)= -0.85839935     E(CORR)=     -306.77447306     Delta=-2.16D-04
 NORM(A)=   0.10915485D+01
 Iteration Nr.   6
 **********************
 DD1Dir will call FoFMem   1 times, MxPair=       156
 NAB=    78 NAA=     0 NBB=     0.
 DE(Corr)= -0.85841415     E(CORR)=     -306.77448787     Delta=-1.48D-05
 NORM(A)=   0.10916568D+01
 Iteration Nr.   7
 **********************
 DD1Dir will call FoFMem   1 times, MxPair=       156
 NAB=    78 NAA=     0 NBB=     0.
 DE(Corr)= -0.85841149     E(CORR)=     -306.77448521     Delta= 2.66D-06
 NORM(A)=   0.10916859D+01
 Iteration Nr.   8
 **********************
 DD1Dir will call FoFMem   1 times, MxPair=       156
 NAB=    78 NAA=     0 NBB=     0.
 DE(Corr)= -0.85842471     E(CORR)=     -306.77449842     Delta=-1.32D-05
 NORM(A)=   0.10916998D+01
 Iteration Nr.   9
 **********************
 DD1Dir will call FoFMem   1 times, MxPair=       156
 NAB=    78 NAA=     0 NBB=     0.
 DE(Corr)= -0.85841430     E(CORR)=     -306.77448801     Delta= 1.04D-05
 NORM(A)=   0.10917092D+01
 Iteration Nr.  10
 **********************
 DD1Dir will call FoFMem   1 times, MxPair=       156
 NAB=    78 NAA=     0 NBB=     0.
 DE(Corr)= -0.85841530     E(CORR)=     -306.77448901     Delta=-1.00D-06
 NORM(A)=   0.10917072D+01
 Iteration Nr.  11
 **********************
 DD1Dir will call FoFMem   1 times, MxPair=       156
 NAB=    78 NAA=     0 NBB=     0.
 DE(Corr)= -0.85841478     E(CORR)=     -306.77448849     Delta= 5.22D-07
 NORM(A)=   0.10917059D+01
 Iteration Nr.  12
 **********************
 DD1Dir will call FoFMem   1 times, MxPair=       156
 NAB=    78 NAA=     0 NBB=     0.
 DE(Corr)= -0.85841369     E(CORR)=     -306.77448740     Delta= 1.09D-06
 NORM(A)=   0.10917043D+01
 Iteration Nr.  13
 **********************
 DD1Dir will call FoFMem   1 times, MxPair=       156
 NAB=    78 NAA=     0 NBB=     0.
 DE(Corr)= -0.85841320     E(CORR)=     -306.77448692     Delta= 4.84D-07
 NORM(A)=   0.10917032D+01
 Iteration Nr.  14
 **********************
 DD1Dir will call FoFMem   1 times, MxPair=       156
 NAB=    78 NAA=     0 NBB=     0.
 DE(Corr)= -0.85841313     E(CORR)=     -306.77448684     Delta= 7.40D-08
 NORM(A)=   0.10917024D+01
 Iteration Nr.  15
 **********************
 DD1Dir will call FoFMem   1 times, MxPair=       156
 NAB=    78 NAA=     0 NBB=     0.
 DE(Corr)= -0.85841302     E(CORR)=     -306.77448674     Delta= 1.03D-07
 NORM(A)=   0.10917020D+01
 Iteration Nr.  16
 **********************
 DD1Dir will call FoFMem   1 times, MxPair=       156
 NAB=    78 NAA=     0 NBB=     0.
 DE(Corr)= -0.85841298     E(CORR)=     -306.77448670     Delta= 3.99D-08
 NORM(A)=   0.10917017D+01
 Wavefunction amplitudes converged. E(Corr)=     -306.77448670    
 Largest amplitude= 3.65D-02
 Discarding MO integrals.

 **********************************************************************

            Population analysis using the SCF Density.

 **********************************************************************

 Orbital symmetries:
       Occupied  (B2) (A1) (A1) (A1) (B2) (A1) (A1) (B2) (A1) (B1)
                 (A1) (A2) (B2) (B2) (A1) (B1)
       Virtual   (A1) (B2) (B1) (A1) (A1) (B2) (B1) (A1) (A2) (B1)
                 (A1) (B2) (A1) (B1) (A1) (B2) (A1) (B1) (B2) (A1)
                 (B1) (B2) (A1) (A1) (A1) (B1) (A2) (B2) (A2) (B1)
                 (A1) (B2) (A2) (A1) (B2) (B2) (A1) (B1) (A1) (B1)
                 (A1) (A1) (B2) (B2) (B1) (A1) (A2) (B2) (A2) (B2)
                 (B1) (A1) (A1) (A2) (A1) (B2) (B1) (A1) (B2) (B1)
                 (A1) (B1) (A1) (B1) (A1) (A2) (B2) (A2) (B2) (A1)
                 (B1) (B2) (A1) (B2) (A1) (B1) (A1) (A2) (B2) (A1)
                 (B2) (B2) (A1) (A1) (B1) (A1) (A2) (B2) (B1) (A1)
                 (A1) (B1) (A2) (B2) (A2) (B2) (A2) (A1) (B1) (B2)
                 (A1) (B1) (A1) (B1) (B2) (A1) (A2) (B1) (B2) (A1)
                 (B2) (A1) (A2) (B2) (B1) (A1) (A2) (B2) (B2) (A1)
                 (B1) (B2) (A1) (A2) (B2) (B1) (A1) (A1) (B2) (A2)
                 (B2) (B1) (A1) (B1) (A1) (B1) (B2) (A1) (A2) (B1)
                 (B2) (A1) (B1) (A1) (A2) (B2) (A2) (B2) (A1) (B2)
                 (B1) (A1) (A2) (A1) (B1) (B2) (A1) (A2) (B2) (B1)
                 (A1) (B2) (A1) (A2) (B2) (A1) (B2) (A1)
 The electronic state is 1-A1.
 Alpha  occ. eigenvalues --  -25.85548 -25.85548 -25.75236  -2.06532  -1.11539
 Alpha  occ. eigenvalues --   -1.11177  -0.99460  -0.23720  -0.22495  -0.21579
 Alpha  occ. eigenvalues --   -0.21561  -0.21101  -0.21088  -0.09953  -0.09952
 Alpha  occ. eigenvalues --   -0.09951
 Alpha virt. eigenvalues --    0.14552   0.15422   0.15508   0.19626   0.25732
 Alpha virt. eigenvalues --    0.25895   0.26022   0.29664   0.31899   0.32773
 Alpha virt. eigenvalues --    0.32963   0.33864   0.35649   0.44364   0.44367
 Alpha virt. eigenvalues --    0.44446   0.47987   0.49836   0.50487   0.51014
 Alpha virt. eigenvalues --    0.52217   0.53044   0.53260   0.55918   0.56810
 Alpha virt. eigenvalues --    0.57970   0.58541   0.59065   0.59255   0.59268
 Alpha virt. eigenvalues --    0.60128   0.61057   0.67476   0.67525   0.67742
 Alpha virt. eigenvalues --    0.71594   0.71816   0.77219   0.77726   0.79788
 Alpha virt. eigenvalues --    0.80655   0.84660   0.88901   1.11344   1.12694
 Alpha virt. eigenvalues --    1.13220   1.20276   1.20578   1.23319   1.23406
 Alpha virt. eigenvalues --    1.24338   1.24613   1.27935   1.30928   1.30948
 Alpha virt. eigenvalues --    1.31257   1.31314   1.32398   1.33294   1.33333
 Alpha virt. eigenvalues --    1.33447   1.46419   1.46892   1.48228   1.48921
 Alpha virt. eigenvalues --    1.51994   1.52531   1.53398   1.53433   1.58195
 Alpha virt. eigenvalues --    1.61268   1.61657   1.64103   1.72339   1.92992
 Alpha virt. eigenvalues --    1.96760   1.97162   1.98335   1.98572   2.19277
 Alpha virt. eigenvalues --    2.38862   2.86315   2.92337   3.12574   3.29053
 Alpha virt. eigenvalues --    3.29073   3.30617   3.30617   3.32904   3.33027
 Alpha virt. eigenvalues --    3.33968   3.33969   3.34143   3.34153   3.34841
 Alpha virt. eigenvalues --    3.34891   3.36454   3.36455   3.36614   3.36798
 Alpha virt. eigenvalues --    3.37199   3.41237   3.41256   3.41276   3.41276
 Alpha virt. eigenvalues --    3.41322   3.41322   3.41351   3.41366   3.41375
 Alpha virt. eigenvalues --    3.42959   3.49380   3.61928   3.61933   3.64001
 Alpha virt. eigenvalues --    3.64146   3.73553   3.73796   4.03558   4.75168
 Alpha virt. eigenvalues --    5.75724   5.75867   5.77804   5.88286   5.88490
 Alpha virt. eigenvalues --    5.88794   5.89199   6.13460   6.30326   9.24021
 Alpha virt. eigenvalues --    9.24021   9.25804   9.25804   9.28265   9.28270
 Alpha virt. eigenvalues --    9.34918   9.34918   9.34941   9.34941   9.34955
 Alpha virt. eigenvalues --    9.34964   9.34969   9.35983   9.36022   9.37527
 Alpha virt. eigenvalues --    9.37537   9.38458   9.38496   9.40827   9.47022
 Alpha virt. eigenvalues --    9.76262   9.76270   9.82644   9.82645   9.82733
 Alpha virt. eigenvalues --    9.82760   9.83023   9.83191   9.83221   9.86074
 Alpha virt. eigenvalues --    9.86189   9.87697   9.92748   9.93399   9.93540
 Alpha virt. eigenvalues --   11.16179  12.89494  13.03132
          Condensed to atoms (all electrons):
               1          2          3          4
     1  F   10.003465   0.000102  -0.001971   0.000102
     2  F    0.000102   9.974185  -0.059308   0.044536
     3  Li  -0.001971  -0.059308   2.199856  -0.059308
     4  F    0.000102   0.044536  -0.059308   9.974185
 Mulliken charges:
               1
     1  F   -1.001699
     2  F   -0.959515
     3  Li   0.920730
     4  F   -0.959515
 Sum of Mulliken charges =  -2.00000
 Mulliken charges with hydrogens summed into heavy atoms:
               1
     1  F   -1.001699
     2  F   -0.959515
     3  Li   0.920730
     4  F   -0.959515
 Electronic spatial extent (au):  <R**2>=           1137.3488
 Charge=             -2.0000 electrons
 Dipole moment (field-independent basis, Debye):
    X=              0.0000    Y=              0.0000    Z=            -11.3846  Tot=             11.3846
 Quadrupole moment (field-independent basis, Debye-Ang):
   XX=            -21.1147   YY=            -45.5075   ZZ=           -123.3331
   XY=             -0.0000   XZ=             -0.0000   YZ=              0.0000
 Traceless Quadrupole moment (field-independent basis, Debye-Ang):
   XX=             42.2037   YY=             17.8109   ZZ=            -60.0146
   XY=             -0.0000   XZ=             -0.0000   YZ=              0.0000
 Octapole moment (field-independent basis, Debye-Ang**2):
  XXX=              0.0000  YYY=              0.0000  ZZZ=           -346.5167  XYY=              0.0000
  XXY=             -0.0000  XXZ=             -4.9600  XZZ=              0.0000  YZZ=             -0.0000
  YYZ=             39.6181  XYZ=              0.0000
 Hexadecapole moment (field-independent basis, Debye-Ang**3):
 XXXX=            -20.5799 YYYY=           -311.7984 ZZZZ=          -2642.5259 XXXY=             -0.0000
 XXXZ=             -0.0000 YYYX=             -0.0000 YYYZ=             -0.0000 ZZZX=             -0.0000
 ZZZY=             -0.0000 XXYY=            -44.8434 XXZZ=           -179.7840 YYZZ=           -299.0240
 XXYZ=              0.0000 YYXZ=             -0.0000 ZZXY=             -0.0000
 N-N= 4.550821548657D+01 E-N=-8.399761540326D+02  KE= 3.058564130255D+02
 Symmetry A1   KE= 1.891144326305D+02
 Symmetry A2   KE= 5.807803128815D+00
 Symmetry B1   KE= 1.139922092405D+01
 Symmetry B2   KE= 9.953495634212D+01
 1\1\GINC-HELIOS\SP\RCCSD-FC\Aug-CC-pVTZ\F3Li1(2-)\POHL\19-May-2025\0\\
 # CCSD/aug-cc-pVTZ SP\\Single-point energy of X- + Y- at fixed distanc
 e R\\-2,1\F,0,0.,0.,6.\F,0,-1.702,0.,0.\Li,0,0.,0.,0.\F,0,1.702,0.,0.\
 \Version=EM64L-G16RevB.01\State=1-A1\HF=-305.9160737\MP2=-306.7892703\
 MP3=-306.7613866\MP4D=-306.7781921\MP4DQ=-306.7691164\MP4SDQ=-306.7817
 667\CCSD=-306.7744867\RMSD=6.078e-09\PG=C02V [C2(Li1F1),SGV(F2)]\\@


 TERRY FORSTER, PORTLY ATLANTA BRAVES RELIEVER,
 ANNOUNCING THAT HE WAS GOING TO A FAT FARM:
 "A WAIST IS A TERRIBLE THING TO MIND."
 Job cpu time:       0 days  0 hours  8 minutes 36.1 seconds.
 Elapsed time:       0 days  0 hours  0 minutes 51.8 seconds.
 File lengths (MBytes):  RWF=   1037 Int=      0 D2E=      0 Chk=      3 Scr=      1
 Normal termination of Gaussian 16 at Mon May 19 13:24:11 2025.
