 Entering Gaussian System, Link 0=g16
 Initial command:
 /opt/g16/l1.exe "/home/pohl/scratches/g16/Gau-1808586.inp" -scrdir="/home/pohl/scratches/g16/"
 Entering Link 1 = /opt/g16/l1.exe PID=   1808588.
  
 Copyright (c) 1988-2017, Gaussian, Inc.  All Rights Reserved.
  
 This is part of the Gaussian(R) 16 program.  It is based on
 the Gaussian(R) 09 system (copyright 2009, Gaussian, Inc.),
 the Gaussian(R) 03 system (copyright 2003, Gaussian, Inc.),
 the Gaussian(R) 98 system (copyright 1998, Gaussian, Inc.),
 the Gaussian(R) 94 system (copyright 1995, Gaussian, Inc.),
 the Gaussian 92(TM) system (copyright 1992, Gaussian, Inc.),
 the Gaussian 90(TM) system (copyright 1990, Gaussian, Inc.),
 the Gaussian 88(TM) system (copyright 1988, Gaussian, Inc.),
 the Gaussian 86(TM) system (copyright 1986, Carnegie Mellon
 University), and the Gaussian 82(TM) system (copyright 1983,
 Carnegie Mellon University). Gaussian is a federally registered
 trademark of Gaussian, Inc.
  
 This software contains proprietary and confidential information,
 including trade secrets, belonging to Gaussian, Inc.
  
 This software is provided under written license and may be
 used, copied, transmitted, or stored only in accord with that
 written license.
  
 The following legend is applicable only to US Government
 contracts under FAR:
  
                    RESTRICTED RIGHTS LEGEND
  
 Use, reproduction and disclosure by the US Government is
 subject to restrictions as set forth in subparagraphs (a)
 and (c) of the Commercial Computer Software - Restricted
 Rights clause in FAR 52.227-19.
  
 Gaussian, Inc.
 340 Quinnipiac St., Bldg. 40, Wallingford CT 06492
  
  
 ---------------------------------------------------------------
 Warning -- This program may not be used in any manner that
 competes with the business of Gaussian, Inc. or will provide
 assistance to any competitor of Gaussian, Inc.  The licensee
 of this program is prohibited from giving any competitor of
 Gaussian, Inc. access to this program.  By using this program,
 the user acknowledges that Gaussian, Inc. is engaged in the
 business of creating and licensing software in the field of
 computational chemistry and represents and warrants to the
 licensee that it is not a competitor of Gaussian, Inc. and that
 it will not use this program in any manner prohibited above.
 ---------------------------------------------------------------
  

 Cite this work as:
 Gaussian 16, Revision B.01,
 M. J. Frisch, G. W. Trucks, H. B. Schlegel, G. E. Scuseria, 
 M. A. Robb, J. R. Cheeseman, G. Scalmani, V. Barone, 
 G. A. Petersson, H. Nakatsuji, X. Li, M. Caricato, A. V. Marenich, 
 J. Bloino, B. G. Janesko, R. Gomperts, B. Mennucci, H. P. Hratchian, 
 J. V. Ortiz, A. F. Izmaylov, J. L. Sonnenberg, D. Williams-Young, 
 F. Ding, F. Lipparini, F. Egidi, J. Goings, B. Peng, A. Petrone, 
 T. Henderson, D. Ranasinghe, V. G. Zakrzewski, J. Gao, N. Rega, 
 G. Zheng, W. Liang, M. Hada, M. Ehara, K. Toyota, R. Fukuda, 
 J. Hasegawa, M. Ishida, T. Nakajima, Y. Honda, O. Kitao, H. Nakai, 
 T. Vreven, K. Throssell, J. A. Montgomery, Jr., J. E. Peralta, 
 F. Ogliaro, M. J. Bearpark, J. J. Heyd, E. N. Brothers, K. N. Kudin, 
 V. N. Staroverov, T. A. Keith, R. Kobayashi, J. Normand, 
 K. Raghavachari, A. P. Rendell, J. C. Burant, S. S. Iyengar, 
 J. Tomasi, M. Cossi, J. M. Millam, M. Klene, C. Adamo, R. Cammi, 
 J. W. Ochterski, R. L. Martin, K. Morokuma, O. Farkas, 
 J. B. Foresman, and D. J. Fox, Gaussian, Inc., Wallingford CT, 2016.
 
 ******************************************
 Gaussian 16:  EM64L-G16RevB.01 20-Dec-2017
                21-May-2025 
 ******************************************
 %mem=30GB
 %nprocshared=10
 Will use up to   10 processors via shared memory.
 ---------------------
 # CCSD/aug-cc-pVTZ SP
 ---------------------
 1/38=1,172=1/1;
 2/12=2,17=6,18=5,40=1/2;
 3/5=16,6=1,7=10,11=9,25=1,30=1/1,2,3;
 4//1;
 5/5=2,38=5/2;
 8/6=4,9=120000,10=1/1,4;
 9/5=7/13;
 6/7=2,8=2,9=2,10=2/1;
 99/5=1,9=1/99;
 --------------------------------------------------
 Single-point energy of X- + Y- at fixed distance R
 --------------------------------------------------
 Symbolic Z-matrix:
 Charge = -2 Multiplicity = 1
 F                     0.        0.        2.2 
 F                    -1.702     0.        0. 
 Li                    0.        0.        0. 
 F                     1.702     0.        0. 
 
                          Input orientation:                          
 ---------------------------------------------------------------------
 Center     Atomic      Atomic             Coordinates (Angstroms)
 Number     Number       Type             X           Y           Z
 ---------------------------------------------------------------------
      1          9           0        0.000000    0.000000    2.200000
      2          9           0       -1.702000    0.000000    0.000000
      3          3           0        0.000000    0.000000    0.000000
      4          9           0        1.702000    0.000000    0.000000
 ---------------------------------------------------------------------
                    Distance matrix (angstroms):
                    1          2          3          4
     1  F    0.000000
     2  F    2.781511   0.000000
     3  Li   2.200000   1.702000   0.000000
     4  F    2.781511   3.404000   1.702000   0.000000
 Stoichiometry    F3Li(2-)
 Framework group  C2V[C2(LiF),SGV(F2)]
 Deg. of freedom     3
 Full point group                 C2V     NOp   4
 Largest Abelian subgroup         C2V     NOp   4
 Largest concise Abelian subgroup C2      NOp   2
                         Standard orientation:                         
 ---------------------------------------------------------------------
 Center     Atomic      Atomic             Coordinates (Angstroms)
 Number     Number       Type             X           Y           Z
 ---------------------------------------------------------------------
      1          9           0        0.000000    0.000000    1.540000
      2          9           0       -0.000000    1.702000   -0.660000
      3          3           0       -0.000000    0.000000   -0.660000
      4          9           0       -0.000000   -1.702000   -0.660000
 ---------------------------------------------------------------------
 Rotational constants (GHZ):           7.8158221           4.5914620           2.8923373
 Standard basis: Aug-CC-pVTZ (5D, 7F)
 There are    85 symmetry adapted cartesian basis functions of A1  symmetry.
 There are    28 symmetry adapted cartesian basis functions of A2  symmetry.
 There are    44 symmetry adapted cartesian basis functions of B1  symmetry.
 There are    63 symmetry adapted cartesian basis functions of B2  symmetry.
 There are    68 symmetry adapted basis functions of A1  symmetry.
 There are    26 symmetry adapted basis functions of A2  symmetry.
 There are    38 symmetry adapted basis functions of B1  symmetry.
 There are    52 symmetry adapted basis functions of B2  symmetry.
   184 basis functions,   290 primitive gaussians,   220 cartesian basis functions
    16 alpha electrons       16 beta electrons
       nuclear repulsion energy        66.6961012009 Hartrees.
 NAtoms=    4 NActive=    4 NUniq=    3 SFac= 1.78D+00 NAtFMM=   60 NAOKFM=F Big=F
 Integral buffers will be    131072 words long.
 Raffenetti 1 integral format.
 Two-electron integral symmetry is turned on.
 One-electron integrals computed using PRISM.
 NBasis=   184 RedAO= T EigKep=  2.14D-04  NBF=    68    26    38    52
 NBsUse=   184 1.00D-06 EigRej= -1.00D+00 NBFU=    68    26    38    52
 ExpMin= 7.59D-03 ExpMax= 1.95D+04 ExpMxC= 6.65D+02 IAcc=3 IRadAn=         5 AccDes= 0.00D+00
 Harris functional with IExCor=  205 and IRadAn=       5 diagonalized for initial guess.
 HarFok:  IExCor=  205 AccDes= 0.00D+00 IRadAn=         5 IDoV= 1 UseB2=F ITyADJ=14
 ICtDFT=  3500011 ScaDFX=  1.000000  1.000000  1.000000  1.000000
 FoFCou: FMM=F IPFlag=           0 FMFlag=      100000 FMFlg1=           0
         NFxFlg=           0 DoJE=T BraDBF=F KetDBF=T FulRan=T
         wScrn=  0.000000 ICntrl=       500 IOpCl=  0 I1Cent=   200000004 NGrid=           0
         NMat0=    1 NMatS0=      1 NMatT0=    0 NMatD0=    1 NMtDS0=    0 NMtDT0=    0
 Petite list used in FoFCou.
 Initial guess orbital symmetries:
       Occupied  (A1) (B2) (A1) (A1) (B2) (A1) (A1) (B2) (A1) (A1)
                 (B1) (B2) (A2) (A1) (B1) (B2)
       Virtual   (A1) (B1) (A1) (B2) (A1) (B1) (A1) (B2) (B1) (A1)
                 (A2) (B2) (A1) (B1) (A1) (A1) (B2) (A1) (B2) (B1)
                 (A1) (B1) (B2) (A2) (B1) (B2) (A2) (A1) (A1) (A1)
                 (B2) (B1) (A2) (A1) (B2) (B1) (B2) (A1) (A1) (A1)
                 (B1) (B2) (A1) (B2) (B1) (B2) (A2) (A1) (A2) (A1)
                 (B2) (A2) (B1) (A1) (B2) (B1) (A1) (A1) (B2) (B1)
                 (B1) (A2) (A1) (B2) (B1) (A1) (A1) (A1) (B2) (A2)
                 (B2) (B1) (B2) (A1) (A1) (B1) (A2) (B2) (A1) (B2)
                 (A1) (B2) (A1) (A1) (B1) (A2) (A1) (B2) (A2) (A1)
                 (B2) (B1) (A1) (B2) (A2) (B1) (A1) (A2) (B2) (B1)
                 (A1) (B1) (B2) (B2) (A1) (A2) (B1) (A1) (A1) (B1)
                 (B1) (B2) (A1) (A2) (A2) (B2) (A1) (B2) (B2) (A1)
                 (B1) (B2) (A1) (A2) (B1) (B2) (A1) (A1) (B2) (A2)
                 (B2) (B1) (A1) (B1) (A1) (A2) (B1) (B2) (A1) (B2)
                 (B1) (A1) (A2) (B2) (B1) (A1) (A1) (A2) (B2) (B2)
                 (A1) (B1) (A2) (B2) (A2) (B1) (A1) (A1) (B2) (B1)
                 (B2) (A1) (A2) (A1) (B2) (A1) (B2) (A1)
 The electronic state of the initial guess is 1-A1.
 Keep R1 ints in memory in symmetry-blocked form, NReq=181483703.
 Requested convergence on RMS density matrix=1.00D-08 within 128 cycles.
 Requested convergence on MAX density matrix=1.00D-06.
 Requested convergence on             energy=1.00D-06.
 No special actions if energy rises.
 SCF Done:  E(RHF) =  -305.850393148     A.U. after   12 cycles
            NFock= 12  Conv=0.32D-08     -V/T= 1.9999
 ExpMin= 7.59D-03 ExpMax= 1.95D+04 ExpMxC= 6.65D+02 IAcc=3 IRadAn=         5 AccDes= 0.00D+00
 HarFok:  IExCor=  205 AccDes= 0.00D+00 IRadAn=         5 IDoV=-2 UseB2=F ITyADJ=14
 ICtDFT= 12500011 ScaDFX=  1.000000  1.000000  1.000000  1.000000
 Range of M.O.s used for correlation:     5   184
 NBasis=   184 NAE=    16 NBE=    16 NFC=     4 NFV=     0
 NROrb=    180 NOA=    12 NOB=    12 NVA=   168 NVB=   168

 **** Warning!!: The largest alpha MO coefficient is  0.21350181D+02

 Semi-Direct transformation.
 ModeAB=           4 MOrb=            12 LenV=    4025575954
 LASXX=      8444399 LTotXX=     8444399 LenRXX=    17045430
 LTotAB=     8601031 MaxLAS=    33272640 LenRXY=           0
 NonZer=    25489829 LenScr=    39014400 LnRSAI=    33272640
 LnScr1=    50685440 LExtra=           0 Total=    140017910
 MaxDsk=          -1 SrtSym=           T ITran=            4
 JobTyp=0 Pass  1:  I=   1 to  12.
 (rs|ai) integrals will be sorted in core.
 Spin components of T(2) and E(2):
     alpha-alpha T2 =       0.2623849817D-01 E2=     -0.1160417669D+00
     alpha-beta  T2 =       0.1336683490D+00 E2=     -0.6445489066D+00
     beta-beta   T2 =       0.2623849817D-01 E2=     -0.1160417669D+00
 ANorm=    0.1089103000D+01
 E2 =    -0.8766324403D+00 EUMP2 =    -0.30672702558786D+03
 Keep R2 and R3 ints in memory in symmetry-blocked form, NReq=181490657.
 CIDS: In Core Option IDoMem=           1.
 Iterations=  50 Convergence= 0.100D-06
 Produce multiple copies of IABC intergrals
 Iteration Nr.   1
 **********************
 DD1Dir will call FoFMem   1 times, MxPair=       156
 NAB=    78 NAA=     0 NBB=     0.
 MP4(R+Q)=  0.95660745D-02
 E3=        0.27947156D-01        EUMP3=      -0.30669907843D+03
 E4(DQ)=   -0.74145707D-02        UMP4(DQ)=   -0.30670649300D+03
 E4(SDQ)=  -0.20910194D-01        UMP4(SDQ)=  -0.30671998863D+03
 DE(Corr)= -0.83793622     E(Corr)=     -306.68832937    
 NORM(A)=   0.10832455D+01
 Iteration Nr.   2
 **********************
 DD1Dir will call FoFMem   1 times, MxPair=       156
 NAB=    78 NAA=     0 NBB=     0.
 DE(Corr)= -0.86344841     E(CORR)=     -306.71384156     Delta=-2.55D-02
 NORM(A)=   0.10890225D+01
 Iteration Nr.   3
 **********************
 DD1Dir will call FoFMem   1 times, MxPair=       156
 NAB=    78 NAA=     0 NBB=     0.
 DE(Corr)= -0.85941486     E(CORR)=     -306.70980801     Delta= 4.03D-03
 NORM(A)=   0.10923731D+01
 Iteration Nr.   4
 **********************
 DD1Dir will call FoFMem   1 times, MxPair=       156
 NAB=    78 NAA=     0 NBB=     0.
 DE(Corr)= -0.86173816     E(CORR)=     -306.71213131     Delta=-2.32D-03
 NORM(A)=   0.10936329D+01
 Iteration Nr.   5
 **********************
 DD1Dir will call FoFMem   1 times, MxPair=       156
 NAB=    78 NAA=     0 NBB=     0.
 DE(Corr)= -0.86202413     E(CORR)=     -306.71241728     Delta=-2.86D-04
 NORM(A)=   0.10943188D+01
 Iteration Nr.   6
 **********************
 DD1Dir will call FoFMem   1 times, MxPair=       156
 NAB=    78 NAA=     0 NBB=     0.
 DE(Corr)= -0.86206704     E(CORR)=     -306.71246019     Delta=-4.29D-05
 NORM(A)=   0.10946407D+01
 Iteration Nr.   7
 **********************
 DD1Dir will call FoFMem   1 times, MxPair=       156
 NAB=    78 NAA=     0 NBB=     0.
 DE(Corr)= -0.86206614     E(CORR)=     -306.71245929     Delta= 9.02D-07
 NORM(A)=   0.10948317D+01
 Iteration Nr.   8
 **********************
 DD1Dir will call FoFMem   1 times, MxPair=       156
 NAB=    78 NAA=     0 NBB=     0.
 DE(Corr)= -0.86211143     E(CORR)=     -306.71250458     Delta=-4.53D-05
 NORM(A)=   0.10949321D+01
 Iteration Nr.   9
 **********************
 DD1Dir will call FoFMem   1 times, MxPair=       156
 NAB=    78 NAA=     0 NBB=     0.
 DE(Corr)= -0.86208465     E(CORR)=     -306.71247780     Delta= 2.68D-05
 NORM(A)=   0.10950199D+01
 Iteration Nr.  10
 **********************
 DD1Dir will call FoFMem   1 times, MxPair=       156
 NAB=    78 NAA=     0 NBB=     0.
 DE(Corr)= -0.86208431     E(CORR)=     -306.71247746     Delta= 3.41D-07
 NORM(A)=   0.10950332D+01
 Iteration Nr.  11
 **********************
 DD1Dir will call FoFMem   1 times, MxPair=       156
 NAB=    78 NAA=     0 NBB=     0.
 DE(Corr)= -0.86208596     E(CORR)=     -306.71247911     Delta=-1.65D-06
 NORM(A)=   0.10950313D+01
 Iteration Nr.  12
 **********************
 DD1Dir will call FoFMem   1 times, MxPair=       156
 NAB=    78 NAA=     0 NBB=     0.
 DE(Corr)= -0.86207941     E(CORR)=     -306.71247256     Delta= 6.55D-06
 NORM(A)=   0.10950354D+01
 Iteration Nr.  13
 **********************
 DD1Dir will call FoFMem   1 times, MxPair=       156
 NAB=    78 NAA=     0 NBB=     0.
 DE(Corr)= -0.86207782     E(CORR)=     -306.71247097     Delta= 1.59D-06
 NORM(A)=   0.10950280D+01
 Iteration Nr.  14
 **********************
 DD1Dir will call FoFMem   1 times, MxPair=       156
 NAB=    78 NAA=     0 NBB=     0.
 DE(Corr)= -0.86207723     E(CORR)=     -306.71247038     Delta= 5.87D-07
 NORM(A)=   0.10950237D+01
 Iteration Nr.  15
 **********************
 DD1Dir will call FoFMem   1 times, MxPair=       156
 NAB=    78 NAA=     0 NBB=     0.
 DE(Corr)= -0.86207619     E(CORR)=     -306.71246934     Delta= 1.04D-06
 NORM(A)=   0.10950203D+01
 Iteration Nr.  16
 **********************
 DD1Dir will call FoFMem   1 times, MxPair=       156
 NAB=    78 NAA=     0 NBB=     0.
 DE(Corr)= -0.86207608     E(CORR)=     -306.71246923     Delta= 1.07D-07
 NORM(A)=   0.10950171D+01
 Iteration Nr.  17
 **********************
 DD1Dir will call FoFMem   1 times, MxPair=       156
 NAB=    78 NAA=     0 NBB=     0.
 DE(Corr)= -0.86207612     E(CORR)=     -306.71246927     Delta=-3.61D-08
 NORM(A)=   0.10950146D+01
 Iteration Nr.  18
 **********************
 DD1Dir will call FoFMem   1 times, MxPair=       156
 NAB=    78 NAA=     0 NBB=     0.
 DE(Corr)= -0.86207584     E(CORR)=     -306.71246899     Delta= 2.78D-07
 NORM(A)=   0.10950130D+01
 Iteration Nr.  19
 **********************
 DD1Dir will call FoFMem   1 times, MxPair=       156
 NAB=    78 NAA=     0 NBB=     0.
 DE(Corr)= -0.86207582     E(CORR)=     -306.71246897     Delta= 1.75D-08
 NORM(A)=   0.10950118D+01
 Iteration Nr.  20
 **********************
 DD1Dir will call FoFMem   1 times, MxPair=       156
 NAB=    78 NAA=     0 NBB=     0.
 DE(Corr)= -0.86207582     E(CORR)=     -306.71246897     Delta= 3.22D-09
 NORM(A)=   0.10950107D+01
 Iteration Nr.  21
 **********************
 DD1Dir will call FoFMem   1 times, MxPair=       156
 NAB=    78 NAA=     0 NBB=     0.
 DE(Corr)= -0.86207575     E(CORR)=     -306.71246889     Delta= 7.47D-08
 NORM(A)=   0.10950099D+01
 Iteration Nr.  22
 **********************
 DD1Dir will call FoFMem   1 times, MxPair=       156
 NAB=    78 NAA=     0 NBB=     0.
 DE(Corr)= -0.86207571     E(CORR)=     -306.71246886     Delta= 3.48D-08
 NORM(A)=   0.10950093D+01
 Iteration Nr.  23
 **********************
 DD1Dir will call FoFMem   1 times, MxPair=       156
 NAB=    78 NAA=     0 NBB=     0.
 DE(Corr)= -0.86207571     E(CORR)=     -306.71246885     Delta= 3.31D-09
 NORM(A)=   0.10950090D+01
 Iteration Nr.  24
 **********************
 DD1Dir will call FoFMem   1 times, MxPair=       156
 NAB=    78 NAA=     0 NBB=     0.
 DE(Corr)= -0.86207569     E(CORR)=     -306.71246884     Delta= 1.94D-08
 NORM(A)=   0.10950087D+01
 Wavefunction amplitudes converged. E(Corr)=     -306.71246884    
 Largest amplitude= 2.28D-02
 Discarding MO integrals.

 **********************************************************************

            Population analysis using the SCF Density.

 **********************************************************************

 Orbital symmetries:
       Occupied  (B2) (A1) (A1) (A1) (B2) (A1) (A1) (B2) (A1) (A1)
                 (B1) (B2) (A2) (A1) (B1) (B2)
       Virtual   (A1) (B2) (B1) (A1) (A1) (B2) (B1) (A1) (B2) (A2)
                 (A1) (B1) (A1) (A1) (B2) (B1) (A1) (B1) (B2) (A1)
                 (A1) (B1) (A1) (B2) (A2) (B2) (B1) (A1) (A2) (B2)
                 (A2) (B1) (B2) (A1) (A1) (A1) (B1) (B1) (A1) (B2)
                 (A1) (B2) (A1) (B2) (B1) (A1) (A2) (B2) (A2) (A1)
                 (B2) (A1) (B1) (B1) (B2) (A1) (A2) (A1) (B1) (B1)
                 (A1) (B2) (A2) (B1) (B2) (A1) (A1) (A2) (B2) (A1)
                 (B2) (B1) (B2) (A1) (A1) (A2) (B1) (B2) (A1) (B2)
                 (A1) (B2) (A1) (A1) (B1) (A2) (B2) (A2) (B2) (A1)
                 (A1) (A1) (B1) (B1) (B2) (A2) (A1) (B1) (B2) (A2)
                 (A1) (B1) (B2) (A1) (B1) (A2) (B2) (A1) (B1) (A2)
                 (B2) (A1) (B1) (A1) (A2) (B2) (A1) (B2) (B2) (A1)
                 (B1) (A1) (B2) (A2) (B1) (B2) (A1) (A1) (B2) (A2)
                 (B2) (B1) (A1) (B1) (A1) (A2) (B1) (B2) (A1) (B2)
                 (B1) (A1) (A2) (B2) (A1) (B1) (A2) (A1) (B2) (B2)
                 (B1) (A1) (A2) (A2) (B2) (B1) (A1) (B2) (A1) (B2)
                 (B1) (A1) (A2) (A1) (B2) (A1) (B2) (A1)
 The electronic state is 1-A1.
 Alpha  occ. eigenvalues --  -25.75962 -25.75962 -25.69271  -1.93918  -1.01888
 Alpha  occ. eigenvalues --   -1.01549  -0.93959  -0.14088  -0.13005  -0.12122
 Alpha  occ. eigenvalues --   -0.12015  -0.11738  -0.11527  -0.04344  -0.04243
 Alpha  occ. eigenvalues --   -0.03961
 Alpha virt. eigenvalues --    0.15855   0.16255   0.16501   0.18782   0.28078
 Alpha virt. eigenvalues --    0.28800   0.29680   0.34279   0.35872   0.35919
 Alpha virt. eigenvalues --    0.36129   0.36286   0.37879   0.46949   0.50263
 Alpha virt. eigenvalues --    0.51896   0.54956   0.55218   0.55969   0.56225
 Alpha virt. eigenvalues --    0.61508   0.62002   0.62124   0.63330   0.64481
 Alpha virt. eigenvalues --    0.65052   0.65096   0.65166   0.65816   0.67957
 Alpha virt. eigenvalues --    0.75727   0.76324   0.77108   0.77642   0.79025
 Alpha virt. eigenvalues --    0.84561   0.86398   0.88001   0.88807   0.89278
 Alpha virt. eigenvalues --    0.96705   0.96722   1.01768   1.20634   1.22256
 Alpha virt. eigenvalues --    1.25857   1.29574   1.29744   1.34122   1.35339
 Alpha virt. eigenvalues --    1.37571   1.38894   1.40735   1.43454   1.43519
 Alpha virt. eigenvalues --    1.44168   1.46069   1.52920   1.55688   1.56872
 Alpha virt. eigenvalues --    1.58197   1.58636   1.59812   1.61880   1.61961
 Alpha virt. eigenvalues --    1.64092   1.64941   1.65296   1.67809   1.73358
 Alpha virt. eigenvalues --    1.83551   1.89595   1.97081   2.03090   2.07738
 Alpha virt. eigenvalues --    2.08640   2.08744   2.14605   2.31232   2.48038
 Alpha virt. eigenvalues --    2.71622   2.96932   3.06249   3.24452   3.37536
 Alpha virt. eigenvalues --    3.37855   3.39291   3.40233   3.40319   3.40660
 Alpha virt. eigenvalues --    3.40952   3.41755   3.41795   3.42909   3.43712
 Alpha virt. eigenvalues --    3.44085   3.45582   3.46272   3.48930   3.49473
 Alpha virt. eigenvalues --    3.50253   3.51388   3.53351   3.56389   3.56840
 Alpha virt. eigenvalues --    3.57051   3.57868   3.61567   3.72600   3.75253
 Alpha virt. eigenvalues --    3.75412   3.76094   3.76571   3.79490   3.83835
 Alpha virt. eigenvalues --    3.89887   3.91615   3.99954   4.14604   4.95410
 Alpha virt. eigenvalues --    5.91141   5.95863   5.96481   5.98234   5.99295
 Alpha virt. eigenvalues --    6.03449   6.23383   6.33128   6.41983   9.33399
 Alpha virt. eigenvalues --    9.34488   9.35592   9.35758   9.37206   9.37342
 Alpha virt. eigenvalues --    9.40923   9.41507   9.41703   9.43934   9.45154
 Alpha virt. eigenvalues --    9.45651   9.47452   9.47745   9.48180   9.51287
 Alpha virt. eigenvalues --    9.52158   9.52726   9.54346   9.57188   9.68618
 Alpha virt. eigenvalues --    9.86510   9.87619   9.92386   9.93374   9.93467
 Alpha virt. eigenvalues --    9.95125   9.96941   9.97446   9.99290  10.00863
 Alpha virt. eigenvalues --   10.02362  10.02846  10.02887  10.09305  10.12143
 Alpha virt. eigenvalues --   12.32811  13.01863  13.40945
          Condensed to atoms (all electrons):
               1          2          3          4
     1  F   10.117916  -0.057576   0.008254  -0.057576
     2  F   -0.057576  10.148959  -0.165866   0.083797
     3  Li   0.008254  -0.165866   2.293830  -0.165866
     4  F   -0.057576   0.083797  -0.165866  10.148959
 Mulliken charges:
               1
     1  F   -1.011019
     2  F   -1.009315
     3  Li   1.029648
     4  F   -1.009315
 Sum of Mulliken charges =  -2.00000
 Mulliken charges with hydrogens summed into heavy atoms:
               1
     1  F   -1.011019
     2  F   -1.009315
     3  Li   1.029648
     4  F   -1.009315
 Electronic spatial extent (au):  <R**2>=            373.7075
 Charge=             -2.0000 electrons
 Dipole moment (field-independent basis, Debye):
    X=              0.0000    Y=              0.0000    Z=             -3.4177  Tot=              3.4177
 Quadrupole moment (field-independent basis, Debye-Ang):
   XX=            -21.3534   YY=            -47.6391   ZZ=            -36.7467
   XY=             -0.0000   XZ=             -0.0000   YZ=             -0.0000
 Traceless Quadrupole moment (field-independent basis, Debye-Ang):
   XX=             13.8930   YY=            -12.3927   ZZ=             -1.5003
   XY=             -0.0000   XZ=             -0.0000   YZ=             -0.0000
 Octapole moment (field-independent basis, Debye-Ang**2):
  XXX=              0.0000  YYY=              0.0000  ZZZ=            -20.4657  XYY=              0.0000
  XXY=             -0.0000  XXZ=             -1.2953  XZZ=              0.0000  YZZ=              0.0000
  YYZ=             18.6884  XYZ=              0.0000
 Hexadecapole moment (field-independent basis, Debye-Ang**3):
 XXXX=            -22.0327 YYYY=           -334.1206 ZZZZ=           -201.1937 XXXY=             -0.0000
 XXXZ=             -0.0000 YYYX=             -0.0000 YYYZ=             -0.0000 ZZZX=             -0.0000
 ZZZY=              0.0000 XXYY=            -47.0693 XXZZ=            -31.9820 YYZZ=            -85.7513
 XXYZ=             -0.0000 YYXZ=             -0.0000 ZZXY=             -0.0000
 N-N= 6.669610120086D+01 E-N=-8.849858837275D+02  KE= 3.058839565166D+02
 Symmetry A1   KE= 1.891265201906D+02
 Symmetry A2   KE= 5.767624935486D+00
 Symmetry B1   KE= 1.134339218266D+01
 Symmetry B2   KE= 9.964641920780D+01
 1\1\GINC-HELIOS\SP\RCCSD-FC\Aug-CC-pVTZ\F3Li1(2-)\POHL\21-May-2025\0\\
 # CCSD/aug-cc-pVTZ SP\\Single-point energy of X- + Y- at fixed distanc
 e R\\-2,1\F,0,0.,0.,2.2\F,0,-1.702,0.,0.\Li,0,0.,0.,0.\F,0,1.702,0.,0.
 \\Version=EM64L-G16RevB.01\State=1-A1\HF=-305.8503931\MP2=-306.7270256
 \MP3=-306.6990784\MP4D=-306.7160591\MP4DQ=-306.706493\MP4SDQ=-306.7199
 886\CCSD=-306.7124688\RMSD=3.159e-09\PG=C02V [C2(Li1F1),SGV(F2)]\\@


 I take a simple view of life: keep your eyes open and get on with it.
 -- Laurence Olivier
 Job cpu time:       0 days  0 hours 12 minutes 24.4 seconds.
 Elapsed time:       0 days  0 hours  1 minutes 16.3 seconds.
 File lengths (MBytes):  RWF=   1117 Int=      0 D2E=      0 Chk=      3 Scr=      1
 Normal termination of Gaussian 16 at Wed May 21 11:20:00 2025.
