 Entering Gaussian System, Link 0=g16
 Input=lclose.com
 Output=lclose.log
 Initial command:
 /opt/g16/l1.exe "/home/pohl/scratches/g16/Gau-1749570.inp" -scrdir="/home/pohl/scratches/g16/"
 Entering Link 1 = /opt/g16/l1.exe PID=   1749572.
  
 Copyright (c) 1988-2017, Gaussian, Inc.  All Rights Reserved.
  
 This is part of the Gaussian(R) 16 program.  It is based on
 the Gaussian(R) 09 system (copyright 2009, Gaussian, Inc.),
 the Gaussian(R) 03 system (copyright 2003, Gaussian, Inc.),
 the Gaussian(R) 98 system (copyright 1998, Gaussian, Inc.),
 the Gaussian(R) 94 system (copyright 1995, Gaussian, Inc.),
 the Gaussian 92(TM) system (copyright 1992, Gaussian, Inc.),
 the Gaussian 90(TM) system (copyright 1990, Gaussian, Inc.),
 the Gaussian 88(TM) system (copyright 1988, Gaussian, Inc.),
 the Gaussian 86(TM) system (copyright 1986, Carnegie Mellon
 University), and the Gaussian 82(TM) system (copyright 1983,
 Carnegie Mellon University). Gaussian is a federally registered
 trademark of Gaussian, Inc.
  
 This software contains proprietary and confidential information,
 including trade secrets, belonging to Gaussian, Inc.
  
 This software is provided under written license and may be
 used, copied, transmitted, or stored only in accord with that
 written license.
  
 The following legend is applicable only to US Government
 contracts under FAR:
  
                    RESTRICTED RIGHTS LEGEND
  
 Use, reproduction and disclosure by the US Government is
 subject to restrictions as set forth in subparagraphs (a)
 and (c) of the Commercial Computer Software - Restricted
 Rights clause in FAR 52.227-19.
  
 Gaussian, Inc.
 340 Quinnipiac St., Bldg. 40, Wallingford CT 06492
  
  
 ---------------------------------------------------------------
 Warning -- This program may not be used in any manner that
 competes with the business of Gaussian, Inc. or will provide
 assistance to any competitor of Gaussian, Inc.  The licensee
 of this program is prohibited from giving any competitor of
 Gaussian, Inc. access to this program.  By using this program,
 the user acknowledges that Gaussian, Inc. is engaged in the
 business of creating and licensing software in the field of
 computational chemistry and represents and warrants to the
 licensee that it is not a competitor of Gaussian, Inc. and that
 it will not use this program in any manner prohibited above.
 ---------------------------------------------------------------
  

 Cite this work as:
 Gaussian 16, Revision B.01,
 M. J. Frisch, G. W. Trucks, H. B. Schlegel, G. E. Scuseria, 
 M. A. Robb, J. R. Cheeseman, G. Scalmani, V. Barone, 
 G. A. Petersson, H. Nakatsuji, X. Li, M. Caricato, A. V. Marenich, 
 J. Bloino, B. G. Janesko, R. Gomperts, B. Mennucci, H. P. Hratchian, 
 J. V. Ortiz, A. F. Izmaylov, J. L. Sonnenberg, D. Williams-Young, 
 F. Ding, F. Lipparini, F. Egidi, J. Goings, B. Peng, A. Petrone, 
 T. Henderson, D. Ranasinghe, V. G. Zakrzewski, J. Gao, N. Rega, 
 G. Zheng, W. Liang, M. Hada, M. Ehara, K. Toyota, R. Fukuda, 
 J. Hasegawa, M. Ishida, T. Nakajima, Y. Honda, O. Kitao, H. Nakai, 
 T. Vreven, K. Throssell, J. A. Montgomery, Jr., J. E. Peralta, 
 F. Ogliaro, M. J. Bearpark, J. J. Heyd, E. N. Brothers, K. N. Kudin, 
 V. N. Staroverov, T. A. Keith, R. Kobayashi, J. Normand, 
 K. Raghavachari, A. P. Rendell, J. C. Burant, S. S. Iyengar, 
 J. Tomasi, M. Cossi, J. M. Millam, M. Klene, C. Adamo, R. Cammi, 
 J. W. Ochterski, R. L. Martin, K. Morokuma, O. Farkas, 
 J. B. Foresman, and D. J. Fox, Gaussian, Inc., Wallingford CT, 2016.
 
 ******************************************
 Gaussian 16:  EM64L-G16RevB.01 20-Dec-2017
                20-May-2025 
 ******************************************
 %mem=30GB
 %nprocshared=10
 Will use up to   10 processors via shared memory.
 ---------------------
 # CCSD/aug-cc-pVTZ SP
 ---------------------
 1/38=1,172=1/1;
 2/12=2,17=6,18=5,40=1/2;
 3/5=16,6=1,7=10,11=9,25=1,30=1/1,2,3;
 4//1;
 5/5=2,38=5/2;
 8/6=4,9=120000,10=1/1,4;
 9/5=7/13;
 6/7=2,8=2,9=2,10=2/1;
 99/5=1,9=1/99;
 --------------------------------------------------
 Single-point energy of X- + Y- at fixed distance R
 --------------------------------------------------
 Symbolic Z-matrix:
 Charge = -2 Multiplicity = 1
 F                     0.        0.        2.5 
 F                    -1.702     0.        0. 
 Li                    0.        0.        0. 
 F                     1.702     0.        0. 
 
                          Input orientation:                          
 ---------------------------------------------------------------------
 Center     Atomic      Atomic             Coordinates (Angstroms)
 Number     Number       Type             X           Y           Z
 ---------------------------------------------------------------------
      1          9           0        0.000000    0.000000    2.500000
      2          9           0       -1.702000    0.000000    0.000000
      3          3           0        0.000000    0.000000    0.000000
      4          9           0        1.702000    0.000000    0.000000
 ---------------------------------------------------------------------
                    Distance matrix (angstroms):
                    1          2          3          4
     1  F    0.000000
     2  F    3.024368   0.000000
     3  Li   2.500000   1.702000   0.000000
     4  F    3.024368   3.404000   1.702000   0.000000
 Stoichiometry    F3Li(2-)
 Framework group  C2V[C2(LiF),SGV(F2)]
 Deg. of freedom     3
 Full point group                 C2V     NOp   4
 Largest Abelian subgroup         C2V     NOp   4
 Largest concise Abelian subgroup C2      NOp   2
                         Standard orientation:                         
 ---------------------------------------------------------------------
 Center     Atomic      Atomic             Coordinates (Angstroms)
 Number     Number       Type             X           Y           Z
 ---------------------------------------------------------------------
      1          9           0        0.000000    0.000000    1.750000
      2          9           0       -0.000000    1.702000   -0.750000
      3          3           0       -0.000000    0.000000   -0.750000
      4          9           0       -0.000000   -1.702000   -0.750000
 ---------------------------------------------------------------------
 Rotational constants (GHZ):           6.0525727           4.5914620           2.6108668
 Standard basis: Aug-CC-pVTZ (5D, 7F)
 There are    85 symmetry adapted cartesian basis functions of A1  symmetry.
 There are    28 symmetry adapted cartesian basis functions of A2  symmetry.
 There are    44 symmetry adapted cartesian basis functions of B1  symmetry.
 There are    63 symmetry adapted cartesian basis functions of B2  symmetry.
 There are    68 symmetry adapted basis functions of A1  symmetry.
 There are    26 symmetry adapted basis functions of A2  symmetry.
 There are    38 symmetry adapted basis functions of B1  symmetry.
 There are    52 symmetry adapted basis functions of B2  symmetry.
   184 basis functions,   290 primitive gaussians,   220 cartesian basis functions
    16 alpha electrons       16 beta electrons
       nuclear repulsion energy        63.4419010813 Hartrees.
 NAtoms=    4 NActive=    4 NUniq=    3 SFac= 1.78D+00 NAtFMM=   60 NAOKFM=F Big=F
 Integral buffers will be    131072 words long.
 Raffenetti 1 integral format.
 Two-electron integral symmetry is turned on.
 One-electron integrals computed using PRISM.
 NBasis=   184 RedAO= T EigKep=  2.19D-04  NBF=    68    26    38    52
 NBsUse=   184 1.00D-06 EigRej= -1.00D+00 NBFU=    68    26    38    52
 ExpMin= 7.59D-03 ExpMax= 1.95D+04 ExpMxC= 6.65D+02 IAcc=3 IRadAn=         5 AccDes= 0.00D+00
 Harris functional with IExCor=  205 and IRadAn=       5 diagonalized for initial guess.
 HarFok:  IExCor=  205 AccDes= 0.00D+00 IRadAn=         5 IDoV= 1 UseB2=F ITyADJ=14
 ICtDFT=  3500011 ScaDFX=  1.000000  1.000000  1.000000  1.000000
 FoFCou: FMM=F IPFlag=           0 FMFlag=      100000 FMFlg1=           0
         NFxFlg=           0 DoJE=T BraDBF=F KetDBF=T FulRan=T
         wScrn=  0.000000 ICntrl=       500 IOpCl=  0 I1Cent=   200000004 NGrid=           0
         NMat0=    1 NMatS0=      1 NMatT0=    0 NMatD0=    1 NMtDS0=    0 NMtDT0=    0
 Petite list used in FoFCou.
 Initial guess orbital symmetries:
       Occupied  (A1) (B2) (A1) (A1) (B2) (A1) (A1) (B2) (A1) (A1)
                 (B1) (B2) (A2) (A1) (B1) (B2)
       Virtual   (A1) (B1) (A1) (B2) (A1) (B1) (A1) (B2) (B1) (A1)
                 (A2) (B2) (A1) (B1) (A1) (A1) (B2) (A1) (B2) (B1)
                 (A1) (B1) (B2) (B1) (A2) (B2) (A2) (A1) (A1) (A1)
                 (B2) (B1) (A2) (B2) (A1) (B1) (B2) (A1) (A1) (A1)
                 (B1) (A1) (B2) (B2) (B1) (B2) (A2) (A1) (A2) (A1)
                 (B2) (A2) (B1) (A1) (B2) (B1) (A1) (A1) (B1) (B1)
                 (B2) (B2) (A2) (A1) (A1) (B1) (A1) (B2) (A1) (A2)
                 (B1) (B2) (B2) (A1) (A1) (B1) (A2) (B2) (A1) (B2)
                 (A1) (B2) (A1) (A1) (A1) (B1) (A2) (B2) (A1) (B2)
                 (B1) (A1) (A2) (B2) (A2) (B1) (A2) (A1) (B2) (B1)
                 (B1) (B2) (A1) (A2) (B2) (B1) (A1) (A1) (B1) (A1)
                 (B2) (B1) (A1) (A2) (B2) (A1) (A2) (B2) (B2) (A1)
                 (B1) (B2) (A1) (B1) (A2) (B2) (A1) (A1) (B2) (A2)
                 (B2) (B1) (A1) (B1) (A1) (A2) (B1) (B2) (B2) (A1)
                 (B1) (A1) (B1) (A2) (B2) (A1) (A2) (A1) (B2) (B2)
                 (A1) (B1) (A2) (A1) (B2) (A2) (A1) (B1) (B1) (B2)
                 (B2) (A1) (A2) (A1) (B2) (A1) (B2) (A1)
 The electronic state of the initial guess is 1-A1.
 Keep R1 ints in memory in symmetry-blocked form, NReq=181483703.
 Requested convergence on RMS density matrix=1.00D-08 within 128 cycles.
 Requested convergence on MAX density matrix=1.00D-06.
 Requested convergence on             energy=1.00D-06.
 No special actions if energy rises.
 SCF Done:  E(RHF) =  -305.856703368     A.U. after   11 cycles
            NFock= 11  Conv=0.81D-08     -V/T= 2.0000
 ExpMin= 7.59D-03 ExpMax= 1.95D+04 ExpMxC= 6.65D+02 IAcc=3 IRadAn=         5 AccDes= 0.00D+00
 HarFok:  IExCor=  205 AccDes= 0.00D+00 IRadAn=         5 IDoV=-2 UseB2=F ITyADJ=14
 ICtDFT= 12500011 ScaDFX=  1.000000  1.000000  1.000000  1.000000
 Range of M.O.s used for correlation:     5   184
 NBasis=   184 NAE=    16 NBE=    16 NFC=     4 NFV=     0
 NROrb=    180 NOA=    12 NOB=    12 NVA=   168 NVB=   168

 **** Warning!!: The largest alpha MO coefficient is  0.20857901D+02

 Semi-Direct transformation.
 ModeAB=           4 MOrb=            12 LenV=    4025577686
 LASXX=      8444399 LTotXX=     8444399 LenRXX=    17045430
 LTotAB=     8601031 MaxLAS=    32842800 LenRXY=           0
 NonZer=    25489829 LenScr=    39014400 LnRSAI=    32842800
 LnScr1=    50036736 LExtra=           0 Total=    138939366
 MaxDsk=          -1 SrtSym=           T ITran=            4
 JobTyp=0 Pass  1:  I=   1 to  12.
 (rs|ai) integrals will be sorted in core.
 Spin components of T(2) and E(2):
     alpha-alpha T2 =       0.2623706550D-01 E2=     -0.1158902596D+00
     alpha-beta  T2 =       0.1338303066D+00 E2=     -0.6443565694D+00
     beta-beta   T2 =       0.2623706550D-01 E2=     -0.1158902596D+00
 ANorm=    0.1089176036D+01
 E2 =    -0.8761370886D+00 EUMP2 =    -0.30673284045679D+03
 Keep R2 and R3 ints in memory in symmetry-blocked form, NReq=181490657.
 CIDS: In Core Option IDoMem=           1.
 Iterations=  50 Convergence= 0.100D-06
 Produce multiple copies of IABC intergrals
 Iteration Nr.   1
 **********************
 DD1Dir will call FoFMem   1 times, MxPair=       156
 NAB=    78 NAA=     0 NBB=     0.
 MP4(R+Q)=  0.94288770D-02
 E3=        0.28264524D-01        EUMP3=      -0.30670457593D+03
 E4(DQ)=   -0.76212918D-02        UMP4(DQ)=   -0.30671219722D+03
 E4(SDQ)=  -0.21024313D-01        UMP4(SDQ)=  -0.30672560025D+03
 DE(Corr)= -0.83726845     E(Corr)=     -306.69397181    
 NORM(A)=   0.10831225D+01
 Iteration Nr.   2
 **********************
 DD1Dir will call FoFMem   1 times, MxPair=       156
 NAB=    78 NAA=     0 NBB=     0.
 DE(Corr)= -0.86271982     E(CORR)=     -306.71942319     Delta=-2.55D-02
 NORM(A)=   0.10889048D+01
 Iteration Nr.   3
 **********************
 DD1Dir will call FoFMem   1 times, MxPair=       156
 NAB=    78 NAA=     0 NBB=     0.
 DE(Corr)= -0.85873172     E(CORR)=     -306.71543509     Delta= 3.99D-03
 NORM(A)=   0.10921223D+01
 Iteration Nr.   4
 **********************
 DD1Dir will call FoFMem   1 times, MxPair=       156
 NAB=    78 NAA=     0 NBB=     0.
 DE(Corr)= -0.86101969     E(CORR)=     -306.71772306     Delta=-2.29D-03
 NORM(A)=   0.10933005D+01
 Iteration Nr.   5
 **********************
 DD1Dir will call FoFMem   1 times, MxPair=       156
 NAB=    78 NAA=     0 NBB=     0.
 DE(Corr)= -0.86129419     E(CORR)=     -306.71799756     Delta=-2.75D-04
 NORM(A)=   0.10939183D+01
 Iteration Nr.   6
 **********************
 DD1Dir will call FoFMem   1 times, MxPair=       156
 NAB=    78 NAA=     0 NBB=     0.
 DE(Corr)= -0.86133529     E(CORR)=     -306.71803866     Delta=-4.11D-05
 NORM(A)=   0.10941993D+01
 Iteration Nr.   7
 **********************
 DD1Dir will call FoFMem   1 times, MxPair=       156
 NAB=    78 NAA=     0 NBB=     0.
 DE(Corr)= -0.86133433     E(CORR)=     -306.71803770     Delta= 9.61D-07
 NORM(A)=   0.10943607D+01
 Iteration Nr.   8
 **********************
 DD1Dir will call FoFMem   1 times, MxPair=       156
 NAB=    78 NAA=     0 NBB=     0.
 DE(Corr)= -0.86137335     E(CORR)=     -306.71807672     Delta=-3.90D-05
 NORM(A)=   0.10944477D+01
 Iteration Nr.   9
 **********************
 DD1Dir will call FoFMem   1 times, MxPair=       156
 NAB=    78 NAA=     0 NBB=     0.
 DE(Corr)= -0.86135044     E(CORR)=     -306.71805380     Delta= 2.29D-05
 NORM(A)=   0.10945230D+01
 Iteration Nr.  10
 **********************
 DD1Dir will call FoFMem   1 times, MxPair=       156
 NAB=    78 NAA=     0 NBB=     0.
 DE(Corr)= -0.86134966     E(CORR)=     -306.71805303     Delta= 7.72D-07
 NORM(A)=   0.10945338D+01
 Iteration Nr.  11
 **********************
 DD1Dir will call FoFMem   1 times, MxPair=       156
 NAB=    78 NAA=     0 NBB=     0.
 DE(Corr)= -0.86135120     E(CORR)=     -306.71805457     Delta=-1.53D-06
 NORM(A)=   0.10945307D+01
 Iteration Nr.  12
 **********************
 DD1Dir will call FoFMem   1 times, MxPair=       156
 NAB=    78 NAA=     0 NBB=     0.
 DE(Corr)= -0.86134515     E(CORR)=     -306.71804852     Delta= 6.04D-06
 NORM(A)=   0.10945331D+01
 Iteration Nr.  13
 **********************
 DD1Dir will call FoFMem   1 times, MxPair=       156
 NAB=    78 NAA=     0 NBB=     0.
 DE(Corr)= -0.86134374     E(CORR)=     -306.71804710     Delta= 1.42D-06
 NORM(A)=   0.10945261D+01
 Iteration Nr.  14
 **********************
 DD1Dir will call FoFMem   1 times, MxPair=       156
 NAB=    78 NAA=     0 NBB=     0.
 DE(Corr)= -0.86134323     E(CORR)=     -306.71804660     Delta= 5.03D-07
 NORM(A)=   0.10945221D+01
 Iteration Nr.  15
 **********************
 DD1Dir will call FoFMem   1 times, MxPair=       156
 NAB=    78 NAA=     0 NBB=     0.
 DE(Corr)= -0.86134231     E(CORR)=     -306.71804567     Delta= 9.28D-07
 NORM(A)=   0.10945191D+01
 Iteration Nr.  16
 **********************
 DD1Dir will call FoFMem   1 times, MxPair=       156
 NAB=    78 NAA=     0 NBB=     0.
 DE(Corr)= -0.86134217     E(CORR)=     -306.71804554     Delta= 1.33D-07
 NORM(A)=   0.10945165D+01
 Iteration Nr.  17
 **********************
 DD1Dir will call FoFMem   1 times, MxPair=       156
 NAB=    78 NAA=     0 NBB=     0.
 DE(Corr)= -0.86134222     E(CORR)=     -306.71804559     Delta=-4.42D-08
 NORM(A)=   0.10945145D+01
 Iteration Nr.  18
 **********************
 DD1Dir will call FoFMem   1 times, MxPair=       156
 NAB=    78 NAA=     0 NBB=     0.
 DE(Corr)= -0.86134200     E(CORR)=     -306.71804536     Delta= 2.21D-07
 NORM(A)=   0.10945132D+01
 Iteration Nr.  19
 **********************
 DD1Dir will call FoFMem   1 times, MxPair=       156
 NAB=    78 NAA=     0 NBB=     0.
 DE(Corr)= -0.86134197     E(CORR)=     -306.71804534     Delta= 2.77D-08
 NORM(A)=   0.10945123D+01
 Iteration Nr.  20
 **********************
 DD1Dir will call FoFMem   1 times, MxPair=       156
 NAB=    78 NAA=     0 NBB=     0.
 DE(Corr)= -0.86134197     E(CORR)=     -306.71804534     Delta=-3.38D-09
 NORM(A)=   0.10945115D+01
 Iteration Nr.  21
 **********************
 DD1Dir will call FoFMem   1 times, MxPair=       156
 NAB=    78 NAA=     0 NBB=     0.
 DE(Corr)= -0.86134192     E(CORR)=     -306.71804529     Delta= 5.13D-08
 NORM(A)=   0.10945109D+01
 Iteration Nr.  22
 **********************
 DD1Dir will call FoFMem   1 times, MxPair=       156
 NAB=    78 NAA=     0 NBB=     0.
 DE(Corr)= -0.86134189     E(CORR)=     -306.71804526     Delta= 2.84D-08
 NORM(A)=   0.10945105D+01
 Iteration Nr.  23
 **********************
 DD1Dir will call FoFMem   1 times, MxPair=       156
 NAB=    78 NAA=     0 NBB=     0.
 DE(Corr)= -0.86134189     E(CORR)=     -306.71804526     Delta= 1.15D-09
 NORM(A)=   0.10945103D+01
 Wavefunction amplitudes converged. E(Corr)=     -306.71804526    
 Largest amplitude= 2.31D-02
 Discarding MO integrals.

 **********************************************************************

            Population analysis using the SCF Density.

 **********************************************************************

 Orbital symmetries:
       Occupied  (B2) (A1) (A1) (A1) (B2) (A1) (A1) (B2) (A1) (A1)
                 (B1) (B2) (A2) (A1) (B1) (B2)
       Virtual   (A1) (B2) (B1) (A1) (A1) (B2) (B1) (A1) (A2) (B2)
                 (B1) (A1) (A1) (A1) (B2) (B1) (A1) (B1) (B2) (A1)
                 (A1) (A1) (B1) (B2) (A2) (B1) (B2) (A1) (A2) (B2)
                 (B1) (A2) (B2) (A1) (A1) (A1) (B1) (B2) (B1) (A1)
                 (A1) (B2) (A1) (B2) (B1) (A1) (A2) (B2) (A2) (B2)
                 (A1) (B1) (A1) (A1) (B1) (B2) (A2) (A1) (B1) (B1)
                 (A1) (B2) (A2) (B2) (A1) (B1) (B2) (A2) (A1) (A1)
                 (B2) (B1) (B2) (A1) (A1) (B1) (A2) (B2) (A1) (B2)
                 (A1) (B2) (A1) (A1) (B2) (B1) (A2) (A1) (A1) (B2)
                 (A2) (B1) (A1) (B1) (B2) (A2) (A1) (B1) (A2) (B2)
                 (A1) (B1) (A2) (B2) (B1) (A1) (B2) (A1) (B1) (A1)
                 (B1) (A2) (B2) (B2) (A1) (A2) (A1) (B2) (B2) (A1)
                 (B1) (B2) (A1) (A2) (B1) (B2) (A1) (A1) (B2) (A2)
                 (B2) (B1) (A1) (B1) (A1) (A2) (B2) (B1) (B2) (A1)
                 (B1) (A1) (B2) (A2) (B1) (A2) (A1) (A1) (B2) (B2)
                 (B1) (A1) (A2) (B2) (A1) (A2) (B1) (A1) (B2) (B1)
                 (B2) (A1) (A2) (B2) (A1) (A1) (B2) (A1)
 The electronic state is 1-A1.
 Alpha  occ. eigenvalues --  -25.77288 -25.77288 -25.69797  -1.96150  -1.03214
 Alpha  occ. eigenvalues --   -1.02863  -0.94202  -0.15398  -0.14236  -0.13308
 Alpha  occ. eigenvalues --   -0.13302  -0.12859  -0.12837  -0.04650  -0.04601
 Alpha  occ. eigenvalues --   -0.04517
 Alpha virt. eigenvalues --    0.15906   0.16209   0.16460   0.18918   0.28321
 Alpha virt. eigenvalues --    0.28561   0.29329   0.33983   0.35623   0.35898
 Alpha virt. eigenvalues --    0.36273   0.36275   0.38494   0.47354   0.49765
 Alpha virt. eigenvalues --    0.51022   0.53917   0.54654   0.55516   0.55973
 Alpha virt. eigenvalues --    0.60036   0.61202   0.61535   0.62822   0.63952
 Alpha virt. eigenvalues --    0.64627   0.64768   0.65170   0.65278   0.67448
 Alpha virt. eigenvalues --    0.74035   0.74948   0.76180   0.76659   0.81150
 Alpha virt. eigenvalues --    0.84987   0.85553   0.86597   0.86796   0.88599
 Alpha virt. eigenvalues --    0.94269   0.96038   0.97268   1.19444   1.21332
 Alpha virt. eigenvalues --    1.23778   1.28281   1.29145   1.33183   1.34608
 Alpha virt. eigenvalues --    1.34824   1.36537   1.37471   1.40705   1.41706
 Alpha virt. eigenvalues --    1.41914   1.41933   1.50206   1.53870   1.55254
 Alpha virt. eigenvalues --    1.58144   1.58616   1.58852   1.60432   1.60622
 Alpha virt. eigenvalues --    1.60714   1.63623   1.63832   1.64549   1.70460
 Alpha virt. eigenvalues --    1.80414   1.81122   1.88281   1.97669   2.01775
 Alpha virt. eigenvalues --    2.06033   2.07112   2.16630   2.26800   2.46705
 Alpha virt. eigenvalues --    2.59562   2.95693   3.02679   3.21782   3.36812
 Alpha virt. eigenvalues --    3.37028   3.38115   3.38179   3.39339   3.39814
 Alpha virt. eigenvalues --    3.41064   3.41122   3.41315   3.42203   3.42707
 Alpha virt. eigenvalues --    3.42953   3.44884   3.46358   3.46572   3.47486
 Alpha virt. eigenvalues --    3.48539   3.48754   3.49925   3.50919   3.51906
 Alpha virt. eigenvalues --    3.52230   3.53613   3.58323   3.67100   3.69128
 Alpha virt. eigenvalues --    3.72391   3.73374   3.74174   3.76335   3.76379
 Alpha virt. eigenvalues --    3.81960   3.84452   3.95423   4.12991   4.91642
 Alpha virt. eigenvalues --    5.87566   5.90841   5.95880   5.96817   5.97168
 Alpha virt. eigenvalues --    6.02589   6.19856   6.22314   6.39867   9.32307
 Alpha virt. eigenvalues --    9.32715   9.34231   9.34461   9.35941   9.36613
 Alpha virt. eigenvalues --    9.39624   9.40414   9.40584   9.40859   9.42015
 Alpha virt. eigenvalues --    9.44254   9.45810   9.46414   9.46529   9.47742
 Alpha virt. eigenvalues --    9.49139   9.49300   9.51660   9.54903   9.64043
 Alpha virt. eigenvalues --    9.85019   9.85405   9.90018   9.91924   9.92440
 Alpha virt. eigenvalues --    9.92722   9.94132   9.96075   9.96170   9.98607
 Alpha virt. eigenvalues --    9.99111  10.01424  10.01572  10.06317  10.07288
 Alpha virt. eigenvalues --   11.99906  13.00791  13.28196
          Condensed to atoms (all electrons):
               1          2          3          4
     1  F   10.135823  -0.032749  -0.020209  -0.032749
     2  F   -0.032749  10.111075  -0.153421   0.073939
     3  Li  -0.020209  -0.153421   2.279246  -0.153421
     4  F   -0.032749   0.073939  -0.153421  10.111075
 Mulliken charges:
               1
     1  F   -1.050117
     2  F   -0.998844
     3  Li   1.047805
     4  F   -0.998844
 Sum of Mulliken charges =  -2.00000
 Mulliken charges with hydrogens summed into heavy atoms:
               1
     1  F   -1.050117
     2  F   -0.998844
     3  Li   1.047805
     4  F   -0.998844
 Electronic spatial extent (au):  <R**2>=            408.1132
 Charge=             -2.0000 electrons
 Dipole moment (field-independent basis, Debye):
    X=              0.0000    Y=             -0.0000    Z=             -4.1353  Tot=              4.1353
 Quadrupole moment (field-independent basis, Debye-Ang):
   XX=            -21.3201   YY=            -47.1714   ZZ=            -40.8576
   XY=             -0.0000   XZ=             -0.0000   YZ=             -0.0000
 Traceless Quadrupole moment (field-independent basis, Debye-Ang):
   XX=             15.1296   YY=            -10.7217   ZZ=             -4.4079
   XY=             -0.0000   XZ=             -0.0000   YZ=             -0.0000
 Octapole moment (field-independent basis, Debye-Ang**2):
  XXX=              0.0000  YYY=             -0.0000  ZZZ=            -29.7082  XYY=              0.0000
  XXY=              0.0000  XXZ=             -1.6695  XZZ=              0.0000  YZZ=              0.0000
  YYZ=             20.0498  XYZ=              0.0000
 Hexadecapole moment (field-independent basis, Debye-Ang**3):
 XXXX=            -21.8611 YYYY=           -329.0768 ZZZZ=           -263.8480 XXXY=             -0.0000
 XXXZ=             -0.0000 YYYX=             -0.0000 YYYZ=              0.0000 ZZZX=             -0.0000
 ZZZY=             -0.0000 XXYY=            -46.5946 XXZZ=            -38.8579 YYZZ=            -95.3975
 XXYZ=              0.0000 YYXZ=             -0.0000 ZZXY=             -0.0000
 N-N= 6.344190108132D+01 E-N=-8.781250192643D+02  KE= 3.058579629491D+02
 Symmetry A1   KE= 1.891179328614D+02
 Symmetry A2   KE= 5.777638314212D+00
 Symmetry B1   KE= 1.135676323025D+01
 Symmetry B2   KE= 9.960562854321D+01
 1\1\GINC-HELIOS\SP\RCCSD-FC\Aug-CC-pVTZ\F3Li1(2-)\POHL\20-May-2025\0\\
 # CCSD/aug-cc-pVTZ SP\\Single-point energy of X- + Y- at fixed distanc
 e R\\-2,1\F,0,0.,0.,2.5\F,0,-1.702,0.,0.\Li,0,0.,0.,0.\F,0,1.702,0.,0.
 \\Version=EM64L-G16RevB.01\State=1-A1\HF=-305.8567034\MP2=-306.7328405
 \MP3=-306.7045759\MP4D=-306.7216261\MP4DQ=-306.7121972\MP4SDQ=-306.725
 6002\CCSD=-306.7180453\RMSD=8.139e-09\PG=C02V [C2(Li1F1),SGV(F2)]\\@


      HUMANKIND PERIODICALLY GOES THROUGH A SPEEDUP OF ITS AFFAIRS, 
      THEREBY EXPERIENCING THE RACE BETWEEN THE RENEWABLE VITALITY
      OF THE LIVING, AND THE BECKONING VITIATION OF DECADENCE.
      IN THIS PERIODIC RACE, ANY PAUSE BECOMES A LUXURY.
      ONLY THEN CAN ONE REFLECT THAT ALL IS PERMITTED;
      ALL IS POSSIBLE.

                              -- THE APOCRYPHA OF MUAD'DIB
                                 CHILDREN OF DUNE, BY FRANK HERBERT
 Job cpu time:       0 days  0 hours 12 minutes 11.5 seconds.
 Elapsed time:       0 days  0 hours  1 minutes 13.8 seconds.
 File lengths (MBytes):  RWF=   1108 Int=      0 D2E=      0 Chk=      3 Scr=      1
 Normal termination of Gaussian 16 at Tue May 20 14:33:41 2025.
