 Entering Gaussian System, Link 0=g16
 Input=C2-molecule.com
 Output=C2-molecule.log
 Initial command:
 /opt/g16/l1.exe "/home/pohl/scratches/g16/Gau-1285603.inp" -scrdir="/home/pohl/scratches/g16/"
 Entering Link 1 = /opt/g16/l1.exe PID=   1285605.
  
 Copyright (c) 1988-2017, Gaussian, Inc.  All Rights Reserved.
  
 This is part of the Gaussian(R) 16 program.  It is based on
 the Gaussian(R) 09 system (copyright 2009, Gaussian, Inc.),
 the Gaussian(R) 03 system (copyright 2003, Gaussian, Inc.),
 the Gaussian(R) 98 system (copyright 1998, Gaussian, Inc.),
 the Gaussian(R) 94 system (copyright 1995, Gaussian, Inc.),
 the Gaussian 92(TM) system (copyright 1992, Gaussian, Inc.),
 the Gaussian 90(TM) system (copyright 1990, Gaussian, Inc.),
 the Gaussian 88(TM) system (copyright 1988, Gaussian, Inc.),
 the Gaussian 86(TM) system (copyright 1986, Carnegie Mellon
 University), and the Gaussian 82(TM) system (copyright 1983,
 Carnegie Mellon University). Gaussian is a federally registered
 trademark of Gaussian, Inc.
  
 This software contains proprietary and confidential information,
 including trade secrets, belonging to Gaussian, Inc.
  
 This software is provided under written license and may be
 used, copied, transmitted, or stored only in accord with that
 written license.
  
 The following legend is applicable only to US Government
 contracts under FAR:
  
                    RESTRICTED RIGHTS LEGEND
  
 Use, reproduction and disclosure by the US Government is
 subject to restrictions as set forth in subparagraphs (a)
 and (c) of the Commercial Computer Software - Restricted
 Rights clause in FAR 52.227-19.
  
 Gaussian, Inc.
 340 Quinnipiac St., Bldg. 40, Wallingford CT 06492
  
  
 ---------------------------------------------------------------
 Warning -- This program may not be used in any manner that
 competes with the business of Gaussian, Inc. or will provide
 assistance to any competitor of Gaussian, Inc.  The licensee
 of this program is prohibited from giving any competitor of
 Gaussian, Inc. access to this program.  By using this program,
 the user acknowledges that Gaussian, Inc. is engaged in the
 business of creating and licensing software in the field of
 computational chemistry and represents and warrants to the
 licensee that it is not a competitor of Gaussian, Inc. and that
 it will not use this program in any manner prohibited above.
 ---------------------------------------------------------------
  

 Cite this work as:
 Gaussian 16, Revision B.01,
 M. J. Frisch, G. W. Trucks, H. B. Schlegel, G. E. Scuseria, 
 M. A. Robb, J. R. Cheeseman, G. Scalmani, V. Barone, 
 G. A. Petersson, H. Nakatsuji, X. Li, M. Caricato, A. V. Marenich, 
 J. Bloino, B. G. Janesko, R. Gomperts, B. Mennucci, H. P. Hratchian, 
 J. V. Ortiz, A. F. Izmaylov, J. L. Sonnenberg, D. Williams-Young, 
 F. Ding, F. Lipparini, F. Egidi, J. Goings, B. Peng, A. Petrone, 
 T. Henderson, D. Ranasinghe, V. G. Zakrzewski, J. Gao, N. Rega, 
 G. Zheng, W. Liang, M. Hada, M. Ehara, K. Toyota, R. Fukuda, 
 J. Hasegawa, M. Ishida, T. Nakajima, Y. Honda, O. Kitao, H. Nakai, 
 T. Vreven, K. Throssell, J. A. Montgomery, Jr., J. E. Peralta, 
 F. Ogliaro, M. J. Bearpark, J. J. Heyd, E. N. Brothers, K. N. Kudin, 
 V. N. Staroverov, T. A. Keith, R. Kobayashi, J. Normand, 
 K. Raghavachari, A. P. Rendell, J. C. Burant, S. S. Iyengar, 
 J. Tomasi, M. Cossi, J. M. Millam, M. Klene, C. Adamo, R. Cammi, 
 J. W. Ochterski, R. L. Martin, K. Morokuma, O. Farkas, 
 J. B. Foresman, and D. J. Fox, Gaussian, Inc., Wallingford CT, 2016.
 
 ******************************************
 Gaussian 16:  EM64L-G16RevB.01 20-Dec-2017
                 3-Feb-2025 
 ******************************************
 %chk=dicmolecule.chk
 %mem=24GB
 %nprocshared=8
 Will use up to    8 processors via shared memory.
 ---------------------------------------------------------
 #P MP2(Full,FullDirect)/6-311++G(d,p) Opt Units=Angstroms
 ---------------------------------------------------------
 1/18=20,19=15,38=1/1,3;
 2/9=110,12=2,17=6,18=5,40=1/2;
 3/5=4,6=6,7=1111,11=9,25=1,30=1,71=1/1,2,3;
 4//1;
 5/5=2,38=5/2;
 8/6=4,10=90/1;
 9/15=2,16=-1/6;
 10/5=1/2;
 6/7=2,8=2,9=2,10=2/1;
 7/12=2/1,2,3,16;
 1/18=20,19=15/3(2);
 2/9=110/2;
 99//99;
 2/9=110/2;
 3/5=4,6=6,7=1111,11=9,25=1,30=1,71=1/1,2,3;
 4/5=5,16=3,69=1/1;
 5/5=2,38=5/2;
 8/6=4,10=90/1;
 9/15=2,16=-1/6;
 10/5=1/2;
 7/12=2/1,2,3,16;
 1/18=20,19=15/3(-8);
 2/9=110/2;
 6/7=2,8=2,9=2,10=2/1;
 99/9=10/99;
 Leave Link    1 at Mon Feb  3 15:47:42 2025, MaxMem=  3221225472 cpu:               0.2 elap:               0.0
 (Enter /opt/g16/l101.exe)


 Symbolic Z-matrix:
 Charge = -2 Multiplicity = 1
 C                     0.        0.        0. 
 C                     0.        0.        1.3 
 
 ITRead=  0  0
 MicOpt= -1 -1
 NAtoms=      2 NQM=        2 NQMF=       0 NMMI=      0 NMMIF=      0
                NMic=       0 NMicF=      0.
                    Isotopes and Nuclear Properties:
 (Nuclear quadrupole moments (NQMom) in fm**2, nuclear magnetic moments (NMagM)
  in nuclear magnetons)

  Atom         1           2
 IAtWgt=          12          12
 AtmWgt=  12.0000000  12.0000000
 NucSpn=           0           0
 AtZEff=  -0.0000000  -0.0000000
 NQMom=    0.0000000   0.0000000
 NMagM=    0.0000000   0.0000000
 AtZNuc=   6.0000000   6.0000000
 Leave Link  101 at Mon Feb  3 15:47:42 2025, MaxMem=  3221225472 cpu:               4.9 elap:               0.6
 (Enter /opt/g16/l103.exe)

 GradGradGradGradGradGradGradGradGradGradGradGradGradGradGradGradGradGrad
 Berny optimization.
 Initialization pass.
                           ----------------------------
                           !    Initial Parameters    !
                           ! (Angstroms and Degrees)  !
 --------------------------                            --------------------------
 ! Name  Definition              Value          Derivative Info.                !
 --------------------------------------------------------------------------------
 ! R1    R(1,2)                  1.3            estimate D2E/DX2                !
 --------------------------------------------------------------------------------
 Trust Radius=3.00D-01 FncErr=1.00D-07 GrdErr=1.00D-07 EigMax=2.50D+02 EigMin=1.00D-04
 Number of steps in this run=     20 maximum allowed number of steps=    100.
 GradGradGradGradGradGradGradGradGradGradGradGradGradGradGradGradGradGrad

 Leave Link  103 at Mon Feb  3 15:47:43 2025, MaxMem=  3221225472 cpu:               0.1 elap:               0.1
 (Enter /opt/g16/l202.exe)
                          Input orientation:                          
 ---------------------------------------------------------------------
 Center     Atomic      Atomic             Coordinates (Angstroms)
 Number     Number       Type             X           Y           Z
 ---------------------------------------------------------------------
      1          6           0        0.000000    0.000000    0.000000
      2          6           0        0.000000    0.000000    1.300000
 ---------------------------------------------------------------------
 Stoichiometry    C2(2-)
 Framework group  D*H[C*(C.C)]
 Deg. of freedom     1
 Full point group                 D*H     NOp   8
 Largest Abelian subgroup         D2H     NOp   8
 Largest concise Abelian subgroup C2      NOp   2
                         Standard orientation:                         
 ---------------------------------------------------------------------
 Center     Atomic      Atomic             Coordinates (Angstroms)
 Number     Number       Type             X           Y           Z
 ---------------------------------------------------------------------
      1          6           0        0.000000    0.000000    0.650000
      2          6           0        0.000000    0.000000   -0.650000
 ---------------------------------------------------------------------
 Rotational constants (GHZ):           0.0000000          49.8401390          49.8401390
 Leave Link  202 at Mon Feb  3 15:47:43 2025, MaxMem=  3221225472 cpu:               0.3 elap:               0.1
 (Enter /opt/g16/l301.exe)
 Standard basis: 6-311++G(d,p) (5D, 7F)
 Ernie: Thresh=  0.10000D-02 Tol=  0.10000D-05 Strict=F.
 There are    12 symmetry adapted cartesian basis functions of AG  symmetry.
 There are     1 symmetry adapted cartesian basis functions of B1G symmetry.
 There are     5 symmetry adapted cartesian basis functions of B2G symmetry.
 There are     5 symmetry adapted cartesian basis functions of B3G symmetry.
 There are     1 symmetry adapted cartesian basis functions of AU  symmetry.
 There are    12 symmetry adapted cartesian basis functions of B1U symmetry.
 There are     5 symmetry adapted cartesian basis functions of B2U symmetry.
 There are     5 symmetry adapted cartesian basis functions of B3U symmetry.
 There are    11 symmetry adapted basis functions of AG  symmetry.
 There are     1 symmetry adapted basis functions of B1G symmetry.
 There are     5 symmetry adapted basis functions of B2G symmetry.
 There are     5 symmetry adapted basis functions of B3G symmetry.
 There are     1 symmetry adapted basis functions of AU  symmetry.
 There are    11 symmetry adapted basis functions of B1U symmetry.
 There are     5 symmetry adapted basis functions of B2U symmetry.
 There are     5 symmetry adapted basis functions of B3U symmetry.
    44 basis functions,    72 primitive gaussians,    46 cartesian basis functions
     7 alpha electrons        7 beta electrons
       nuclear repulsion energy        14.6541381486 Hartrees.
 IExCor=    0 DFT=F Ex=HF Corr=None ExCW=0 ScaHFX=  1.000000
 ScaDFX=  1.000000  1.000000  1.000000  1.000000 ScalE2=  1.000000  1.000000
 IRadAn=      5 IRanWt=     -1 IRanGd=            0 ICorTp=0 IEmpDi=  4
 NAtoms=    2 NActive=    2 NUniq=    1 SFac= 4.00D+00 NAtFMM=   60 NAOKFM=F Big=F
 Integral buffers will be    131072 words long.
 Raffenetti 1 integral format.
 Two-electron integral symmetry is turned on.
 Leave Link  301 at Mon Feb  3 15:47:43 2025, MaxMem=  3221225472 cpu:               0.5 elap:               0.1
 (Enter /opt/g16/l302.exe)
 NPDir=0 NMtPBC=     1 NCelOv=     1 NCel=       1 NClECP=     1 NCelD=      1
         NCelK=      1 NCelE2=     1 NClLst=     1 CellRange=     0.0.
 One-electron integrals computed using PRISM.
 One-electron integral symmetry used in STVInt
 NBasis=    44 RedAO= T EigKep=  1.98D-04  NBF=    11     1     5     5     1    11     5     5
 NBsUse=    44 1.00D-06 EigRej= -1.00D+00 NBFU=    11     1     5     5     1    11     5     5
 Leave Link  302 at Mon Feb  3 15:47:43 2025, MaxMem=  3221225472 cpu:               1.5 elap:               0.3
 (Enter /opt/g16/l303.exe)
 DipDrv:  MaxL=1.
 Leave Link  303 at Mon Feb  3 15:47:44 2025, MaxMem=  3221225472 cpu:               0.6 elap:               0.2
 (Enter /opt/g16/l401.exe)
 ExpMin= 4.38D-02 ExpMax= 4.56D+03 ExpMxC= 6.82D+02 IAcc=3 IRadAn=         5 AccDes= 0.00D+00
 Harris functional with IExCor=  205 and IRadAn=       5 diagonalized for initial guess.
 HarFok:  IExCor=  205 AccDes= 0.00D+00 IRadAn=         5 IDoV= 1 UseB2=F ITyADJ=14
 ICtDFT=  3500011 ScaDFX=  1.000000  1.000000  1.000000  1.000000
 FoFCou: FMM=F IPFlag=           0 FMFlag=      100000 FMFlg1=           0
         NFxFlg=           0 DoJE=T BraDBF=F KetDBF=T FulRan=T
         wScrn=  0.000000 ICntrl=       500 IOpCl=  0 I1Cent=   200000004 NGrid=           0
         NMat0=    1 NMatS0=      1 NMatT0=    0 NMatD0=    1 NMtDS0=    0 NMtDT0=    0
 Petite list used in FoFCou.
 Harris En= -76.0976685454903    
 JPrj=0 DoOrth=F DoCkMO=F.
 Initial guess orbital symmetries:
       Occupied  (SGG) (SGU) (SGG) (SGU) (PIU) (PIU) (SGG)
       Virtual   (PIG) (PIG) (SGG) (SGU) (PIU) (PIU) (SGG) (PIG)
                 (PIG) (SGU) (SGU) (SGG) (PIU) (PIU) (PIG) (PIG)
                 (SGG) (SGU) (SGU) (DLTG) (DLTG) (PIU) (PIU) (DLTU)
                 (DLTU) (SGG) (PIG) (PIG) (SGU) (PIU) (PIU) (PIG)
                 (PIG) (SGG) (SGU) (SGG) (SGU)
 The electronic state of the initial guess is 1-SGG.
 Leave Link  401 at Mon Feb  3 15:47:44 2025, MaxMem=  3221225472 cpu:               1.8 elap:               0.3
 (Enter /opt/g16/l502.exe)
 Keep R1 ints in memory in symmetry-blocked form, NReq=2147395.
 FoFCou: FMM=F IPFlag=           0 FMFlag=           0 FMFlg1=           0
         NFxFlg=           0 DoJE=F BraDBF=F KetDBF=F FulRan=T
         wScrn=  0.000000 ICntrl=       600 IOpCl=  0 I1Cent=           0 NGrid=           0
         NMat0=    1 NMatS0=    990 NMatT0=    0 NMatD0=    1 NMtDS0=    0 NMtDT0=    0
 Petite list used in FoFCou.
 Closed shell SCF:
 Using DIIS extrapolation, IDIIS=  1040.
 NGot=  3221225472 LenX=  3221147093 LenY=  3221144536
 Requested convergence on RMS density matrix=1.00D-08 within 128 cycles.
 Requested convergence on MAX density matrix=1.00D-06.
 Requested convergence on             energy=1.00D-06.
 No special actions if energy rises.

 Cycle   1  Pass 1  IDiag  1:
 E= -75.0266375945131    
 DIIS: error= 8.69D-02 at cycle   1 NSaved=   1.
 NSaved= 1 IEnMin= 1 EnMin= -75.0266375945131     IErMin= 1 ErrMin= 8.69D-02
 ErrMax= 8.69D-02  0.00D+00 EMaxC= 1.00D-01 BMatC= 3.01D-01 BMatP= 3.01D-01
 IDIUse=3 WtCom= 1.31D-01 WtEn= 8.69D-01
 Coeff-Com:  0.100D+01
 Coeff-En:   0.100D+01
 Coeff:      0.100D+01
 Gap=     0.017 Goal=   None    Shift=    0.000
 GapD=    0.017 DampG=0.250 DampE=0.500 DampFc=0.2500 IDamp=-1.
 Damping current iteration by 2.50D-01
 RMSDP=4.41D-02 MaxDP=6.66D-01              OVMax= 5.58D-01

 Cycle   2  Pass 1  IDiag  1:
 E= -75.1342062280323     Delta-E=       -0.107568633519 Rises=F Damp=T
 DIIS: error= 4.97D-02 at cycle   2 NSaved=   2.
 NSaved= 2 IEnMin= 2 EnMin= -75.1342062280323     IErMin= 2 ErrMin= 4.97D-02
 ErrMax= 4.97D-02  0.00D+00 EMaxC= 1.00D-01 BMatC= 1.07D-01 BMatP= 3.01D-01
 IDIUse=3 WtCom= 5.03D-01 WtEn= 4.97D-01
 Coeff-Com: -0.118D+01 0.218D+01
 Coeff-En:   0.000D+00 0.100D+01
 Coeff:     -0.594D+00 0.159D+01
 Gap=     0.216 Goal=   None    Shift=    0.000
 RMSDP=1.02D-02 MaxDP=1.10D-01 DE=-1.08D-01 OVMax= 3.17D-01

 Cycle   3  Pass 1  IDiag  1:
 E= -75.3995632762183     Delta-E=       -0.265357048186 Rises=F Damp=F
 DIIS: error= 5.04D-03 at cycle   3 NSaved=   3.
 NSaved= 3 IEnMin= 3 EnMin= -75.3995632762183     IErMin= 3 ErrMin= 5.04D-03
 ErrMax= 5.04D-03  0.00D+00 EMaxC= 1.00D-01 BMatC= 7.06D-04 BMatP= 1.07D-01
 IDIUse=3 WtCom= 9.50D-01 WtEn= 5.04D-02
 Coeff-Com:  0.969D-01-0.187D+00 0.109D+01
 Coeff-En:   0.000D+00 0.000D+00 0.100D+01
 Coeff:      0.920D-01-0.177D+00 0.109D+01
 Gap=     0.268 Goal=   None    Shift=    0.000
 RMSDP=4.19D-03 MaxDP=4.09D-02 DE=-2.65D-01 OVMax= 1.37D-02

 Cycle   4  Pass 1  IDiag  1:
 E= -75.4003153010106     Delta-E=       -0.000752024792 Rises=F Damp=F
 DIIS: error= 2.77D-03 at cycle   4 NSaved=   4.
 NSaved= 4 IEnMin= 4 EnMin= -75.4003153010106     IErMin= 4 ErrMin= 2.77D-03
 ErrMax= 2.77D-03  0.00D+00 EMaxC= 1.00D-01 BMatC= 1.67D-04 BMatP= 7.06D-04
 IDIUse=3 WtCom= 9.72D-01 WtEn= 2.77D-02
 Coeff-Com:  0.652D-01-0.787D-01-0.505D-01 0.106D+01
 Coeff-En:   0.000D+00 0.000D+00 0.000D+00 0.100D+01
 Coeff:      0.634D-01-0.766D-01-0.491D-01 0.106D+01
 Gap=     0.274 Goal=   None    Shift=    0.000
 RMSDP=1.09D-03 MaxDP=9.38D-03 DE=-7.52D-04 OVMax= 9.98D-03

 Cycle   5  Pass 1  IDiag  1:
 E= -75.4005847515991     Delta-E=       -0.000269450589 Rises=F Damp=F
 DIIS: error= 6.13D-04 at cycle   5 NSaved=   5.
 NSaved= 5 IEnMin= 5 EnMin= -75.4005847515991     IErMin= 5 ErrMin= 6.13D-04
 ErrMax= 6.13D-04  0.00D+00 EMaxC= 1.00D-01 BMatC= 5.56D-06 BMatP= 1.67D-04
 IDIUse=3 WtCom= 9.94D-01 WtEn= 6.13D-03
 Coeff-Com: -0.319D-02 0.314D-02 0.939D-02-0.263D+00 0.125D+01
 Coeff-En:   0.000D+00 0.000D+00 0.000D+00 0.000D+00 0.100D+01
 Coeff:     -0.317D-02 0.312D-02 0.933D-02-0.262D+00 0.125D+01
 Gap=     0.274 Goal=   None    Shift=    0.000
 RMSDP=3.47D-04 MaxDP=3.04D-03 DE=-2.69D-04 OVMax= 3.66D-03

 Cycle   6  Pass 1  IDiag  1:
 E= -75.4006006681053     Delta-E=       -0.000015916506 Rises=F Damp=F
 DIIS: error= 1.18D-04 at cycle   6 NSaved=   6.
 NSaved= 6 IEnMin= 6 EnMin= -75.4006006681053     IErMin= 6 ErrMin= 1.18D-04
 ErrMax= 1.18D-04  0.00D+00 EMaxC= 1.00D-01 BMatC= 2.63D-07 BMatP= 5.56D-06
 IDIUse=3 WtCom= 9.99D-01 WtEn= 1.18D-03
 Coeff-Com: -0.250D-03 0.788D-03-0.628D-02 0.138D+00-0.831D+00 0.170D+01
 Coeff-En:   0.000D+00 0.000D+00 0.000D+00 0.000D+00 0.000D+00 0.100D+01
 Coeff:     -0.250D-03 0.787D-03-0.628D-02 0.138D+00-0.830D+00 0.170D+01
 Gap=     0.274 Goal=   None    Shift=    0.000
 RMSDP=2.36D-04 MaxDP=2.12D-03 DE=-1.59D-05 OVMax= 1.57D-03

 Cycle   7  Pass 1  IDiag  1:
 E= -75.4006030558130     Delta-E=       -0.000002387708 Rises=F Damp=F
 DIIS: error= 3.19D-05 at cycle   7 NSaved=   7.
 NSaved= 7 IEnMin= 7 EnMin= -75.4006030558130     IErMin= 7 ErrMin= 3.19D-05
 ErrMax= 3.19D-05  0.00D+00 EMaxC= 1.00D-01 BMatC= 2.21D-08 BMatP= 2.63D-07
 IDIUse=1 WtCom= 1.00D+00 WtEn= 0.00D+00
 Coeff-Com:  0.326D-03-0.626D-03 0.192D-02-0.529D-01 0.337D+00-0.931D+00
 Coeff-Com:  0.164D+01
 Coeff:      0.326D-03-0.626D-03 0.192D-02-0.529D-01 0.337D+00-0.931D+00
 Coeff:      0.164D+01
 Gap=     0.274 Goal=   None    Shift=    0.000
 RMSDP=1.18D-04 MaxDP=1.09D-03 DE=-2.39D-06 OVMax= 5.02D-04

 Cycle   8  Pass 1  IDiag  1:
 E= -75.4006032761880     Delta-E=       -0.000000220375 Rises=F Damp=F
 DIIS: error= 1.02D-05 at cycle   8 NSaved=   8.
 NSaved= 8 IEnMin= 8 EnMin= -75.4006032761880     IErMin= 8 ErrMin= 1.02D-05
 ErrMax= 1.02D-05  0.00D+00 EMaxC= 1.00D-01 BMatC= 1.57D-09 BMatP= 2.21D-08
 IDIUse=1 WtCom= 1.00D+00 WtEn= 0.00D+00
 Coeff-Com:  0.151D-03-0.248D-03 0.861D-03 0.262D-02-0.314D-01 0.143D+00
 Coeff-Com: -0.475D+00 0.136D+01
 Coeff:      0.151D-03-0.248D-03 0.861D-03 0.262D-02-0.314D-01 0.143D+00
 Coeff:     -0.475D+00 0.136D+01
 Gap=     0.274 Goal=   None    Shift=    0.000
 RMSDP=1.21D-05 MaxDP=1.13D-04 DE=-2.20D-07 OVMax= 8.14D-05

 Cycle   9  Pass 1  IDiag  1:
 E= -75.4006032819675     Delta-E=       -0.000000005779 Rises=F Damp=F
 DIIS: error= 3.08D-06 at cycle   9 NSaved=   9.
 NSaved= 9 IEnMin= 9 EnMin= -75.4006032819675     IErMin= 9 ErrMin= 3.08D-06
 ErrMax= 3.08D-06  0.00D+00 EMaxC= 1.00D-01 BMatC= 2.05D-10 BMatP= 1.57D-09
 IDIUse=1 WtCom= 1.00D+00 WtEn= 0.00D+00
 Coeff-Com:  0.274D-04-0.323D-04-0.444D-04-0.298D-03 0.114D-02-0.141D-01
 Coeff-Com:  0.936D-01-0.391D+00 0.131D+01
 Coeff:      0.274D-04-0.323D-04-0.444D-04-0.298D-03 0.114D-02-0.141D-01
 Coeff:      0.936D-01-0.391D+00 0.131D+01
 Gap=     0.274 Goal=   None    Shift=    0.000
 RMSDP=5.04D-06 MaxDP=4.78D-05 DE=-5.78D-09 OVMax= 1.02D-05

 Cycle  10  Pass 1  IDiag  1:
 E= -75.4006032822987     Delta-E=       -0.000000000331 Rises=F Damp=F
 DIIS: error= 4.42D-07 at cycle  10 NSaved=  10.
 NSaved=10 IEnMin=10 EnMin= -75.4006032822987     IErMin=10 ErrMin= 4.42D-07
 ErrMax= 4.42D-07  0.00D+00 EMaxC= 1.00D-01 BMatC= 4.95D-12 BMatP= 2.05D-10
 IDIUse=1 WtCom= 1.00D+00 WtEn= 0.00D+00
 Coeff-Com:  0.231D-05-0.457D-05 0.197D-04-0.241D-03 0.179D-02-0.358D-02
 Coeff-Com: -0.322D-02 0.400D-01-0.319D+00 0.128D+01
 Coeff:      0.231D-05-0.457D-05 0.197D-04-0.241D-03 0.179D-02-0.358D-02
 Coeff:     -0.322D-02 0.400D-01-0.319D+00 0.128D+01
 Gap=     0.274 Goal=   None    Shift=    0.000
 RMSDP=1.39D-06 MaxDP=1.33D-05 DE=-3.31D-10 OVMax= 1.91D-06

 Cycle  11  Pass 1  IDiag  1:
 E= -75.4006032823068     Delta-E=       -0.000000000008 Rises=F Damp=F
 DIIS: error= 5.12D-08 at cycle  11 NSaved=  11.
 NSaved=11 IEnMin=11 EnMin= -75.4006032823068     IErMin=11 ErrMin= 5.12D-08
 ErrMax= 5.12D-08  0.00D+00 EMaxC= 1.00D-01 BMatC= 6.88D-14 BMatP= 4.95D-12
 IDIUse=1 WtCom= 1.00D+00 WtEn= 0.00D+00
 Coeff-Com:  0.308D-06-0.414D-06 0.931D-06 0.527D-04-0.475D-03 0.135D-02
 Coeff-Com: -0.168D-02-0.166D-03 0.399D-01-0.254D+00 0.121D+01
 Coeff:      0.308D-06-0.414D-06 0.931D-06 0.527D-04-0.475D-03 0.135D-02
 Coeff:     -0.168D-02-0.166D-03 0.399D-01-0.254D+00 0.121D+01
 Gap=     0.274 Goal=   None    Shift=    0.000
 RMSDP=1.62D-07 MaxDP=1.55D-06 DE=-8.04D-12 OVMax= 1.63D-07

 Cycle  12  Pass 1  IDiag  1:
 E= -75.4006032823070     Delta-E=       -0.000000000000 Rises=F Damp=F
 DIIS: error= 6.20D-09 at cycle  12 NSaved=  12.
 NSaved=12 IEnMin=12 EnMin= -75.4006032823070     IErMin=12 ErrMin= 6.20D-09
 ErrMax= 6.20D-09  0.00D+00 EMaxC= 1.00D-01 BMatC= 7.84D-16 BMatP= 6.88D-14
 IDIUse=1 WtCom= 1.00D+00 WtEn= 0.00D+00
 Coeff-Com:  0.131D-06-0.195D-06 0.165D-06-0.122D-04 0.110D-03-0.311D-03
 Coeff-Com:  0.361D-03 0.912D-04-0.891D-02 0.655D-01-0.391D+00 0.133D+01
 Coeff:      0.131D-06-0.195D-06 0.165D-06-0.122D-04 0.110D-03-0.311D-03
 Coeff:      0.361D-03 0.912D-04-0.891D-02 0.655D-01-0.391D+00 0.133D+01
 Gap=     0.274 Goal=   None    Shift=    0.000
 RMSDP=1.09D-08 MaxDP=1.05D-07 DE=-1.99D-13 OVMax= 2.12D-08

 Cycle  13  Pass 1  IDiag  1:
 E= -75.4006032823069     Delta-E=        0.000000000000 Rises=F Damp=F
 DIIS: error= 2.60D-09 at cycle  13 NSaved=  13.
 NSaved=13 IEnMin=12 EnMin= -75.4006032823070     IErMin=13 ErrMin= 2.60D-09
 ErrMax= 2.60D-09  0.00D+00 EMaxC= 1.00D-01 BMatC= 1.71D-16 BMatP= 7.84D-16
 IDIUse=1 WtCom= 1.00D+00 WtEn= 0.00D+00
 Coeff-Com:  0.314D-07-0.495D-07 0.145D-06 0.852D-07-0.482D-05 0.202D-04
 Coeff-Com: -0.517D-04 0.129D-03-0.403D-03-0.119D-02 0.236D-01-0.267D+00
 Coeff-Com:  0.124D+01
 Coeff:      0.314D-07-0.495D-07 0.145D-06 0.852D-07-0.482D-05 0.202D-04
 Coeff:     -0.517D-04 0.129D-03-0.403D-03-0.119D-02 0.236D-01-0.267D+00
 Coeff:      0.124D+01
 Gap=     0.274 Goal=   None    Shift=    0.000
 RMSDP=1.55D-09 MaxDP=1.50D-08 DE= 5.68D-14 OVMax= 5.43D-09

 SCF Done:  E(RHF) =  -75.4006032823     A.U. after   13 cycles
            NFock= 13  Conv=0.16D-08     -V/T= 2.0014
 KE= 7.529501929458D+01 PE=-2.119005655945D+02 EE= 4.655080486903D+01
 Leave Link  502 at Mon Feb  3 15:47:45 2025, MaxMem=  3221225472 cpu:               2.2 elap:               0.4
 (Enter /opt/g16/l801.exe)
 Range of M.O.s used for correlation:     1    44
 NBasis=    44 NAE=     7 NBE=     7 NFC=     0 NFV=     0
 NROrb=     44 NOA=     7 NOB=     7 NVA=    37 NVB=    37

 **** Warning!!: The largest alpha MO coefficient is  0.37157661D+02

 Leave Link  801 at Mon Feb  3 15:47:45 2025, MaxMem=  3221225472 cpu:               0.3 elap:               0.1
 (Enter /opt/g16/l906.exe)
 FulOut=F Deriv=T AODrv=T NAtomX=     2
   MMem=       13893  MDisk=           7 MDiskD=           7
  W3Min=       14168 MinDsk=       83143 NBas6D=          46
 NBas2D=        1159    NTT=        1081    LW2=     2040000
    MDV=  3221197636 MDiskM=      971979 NBas2p=         630
 Fully direct method using O(ONN) memory.
 IMap=   1   2   3   4   5   6   7
 JobTyp=1 Pass  1:  I=   1 to   7 NPSUse=  8 ParTrn=T ParDer=T DoDerP=T.
 Spin components of T(2) and E(2):
     alpha-alpha T2 =       0.2226670472D-01 E2=     -0.4073198576D-01
     alpha-beta  T2 =       0.1156197543D+00 E2=     -0.2435691071D+00
     beta-beta   T2 =       0.2226670472D-01 E2=     -0.4073198576D-01
 The integrals were generated   1 times.
 ANorm=    0.1077104064D+01
 E2 =    -0.3250330786D+00 EUMP2 =    -0.75725636360919D+02
 Leave Link  906 at Mon Feb  3 15:47:45 2025, MaxMem=  3221225472 cpu:               1.0 elap:               0.2
 (Enter /opt/g16/l1002.exe)
 Minotr:  Closed shell wavefunction.
          Computing MP2/KS-MP2 derivatives.
          Using Z-Vector for PSCF gradient.
          Skipping F1 and S1 gradient terms here.
          IDoAtm=11
          Direct CPHF calculation.
          Differentiating once with respect to electric field.
                with respect to dipole field.
          Differentiating once with respect to nuclear coordinates.
          Using symmetry in CPHF.
          Requested convergence is 1.0D-10 RMS, and 1.0D-09 maximum.
          NewPWx=F KeepS1=T KeepF1=T KeepIn=T MapXYZ=F SortEE=F KeepMc=T.
 Keep R1 ints in memory in symmetry-blocked form, NReq=2147932.
 FoFCou: FMM=F IPFlag=           0 FMFlag=           0 FMFlg1=           0
         NFxFlg=           0 DoJE=F BraDBF=F KetDBF=F FulRan=T
         wScrn=  0.000000 ICntrl=       600 IOpCl=  0 I1Cent=           0 NGrid=           0
         NMat0=    1 NMatS0=    990 NMatT0=    0 NMatD0=    1 NMtDS0=    0 NMtDT0=    0
 Petite list used in FoFCou.
          MDV=    3221225472 using IRadAn=       5.
          Solving linear equations separately, MaxMat=       0.
          There are     1 degrees of freedom in the 1st order CPHF.  IDoFFX=0 NUNeed=     1.
 LinEq1:  Iter=  0 NonCon=     1 RMS=1.68D-02 Max=1.80D-01 NDo=     1
 AX will form     1 AO Fock derivatives at one time.
 LinEq1:  Iter=  1 NonCon=     1 RMS=5.83D-03 Max=5.15D-02 NDo=     1
 LinEq1:  Iter=  2 NonCon=     1 RMS=3.85D-03 Max=4.10D-02 NDo=     1
 LinEq1:  Iter=  3 NonCon=     1 RMS=4.63D-04 Max=3.26D-03 NDo=     1
 LinEq1:  Iter=  4 NonCon=     1 RMS=7.89D-05 Max=5.69D-04 NDo=     1
 LinEq1:  Iter=  5 NonCon=     1 RMS=9.05D-06 Max=5.64D-05 NDo=     1
 LinEq1:  Iter=  6 NonCon=     1 RMS=8.58D-07 Max=6.10D-06 NDo=     1
 LinEq1:  Iter=  7 NonCon=     1 RMS=9.21D-08 Max=6.35D-07 NDo=     1
 LinEq1:  Iter=  8 NonCon=     1 RMS=7.05D-09 Max=5.12D-08 NDo=     1
 LinEq1:  Iter=  9 NonCon=     1 RMS=6.20D-10 Max=3.94D-09 NDo=     1
 LinEq1:  Iter= 10 NonCon=     0 RMS=5.15D-11 Max=3.46D-10 NDo=     1
 Linear equations converged to 1.000D-10 1.000D-09 after    10 iterations.
 End of Minotr F.D. properties file   721 does not exist.
 End of Minotr F.D. properties file   722 does not exist.
 End of Minotr F.D. properties file   788 does not exist.
 Leave Link 1002 at Mon Feb  3 15:47:46 2025, MaxMem=  3221225472 cpu:               6.6 elap:               1.2
 (Enter /opt/g16/l601.exe)
 Copying SCF densities to generalized density rwf, IOpCl= 0 IROHF=0.

 **********************************************************************

            Population analysis using the SCF Density.

 **********************************************************************

 Orbital symmetries:
       Occupied  (SGG) (SGU) (SGG) (SGU) (SGG) (PIU) (PIU)
       Virtual   (SGU) (SGG) (PIG) (PIG) (PIU) (PIU) (SGG) (SGU)
                 (PIG) (PIG) (SGU) (SGG) (PIU) (PIU) (PIG) (PIG)
                 (SGG) (SGU) (SGU) (DLTG) (DLTG) (PIU) (PIU) (DLTU)
                 (DLTU) (SGG) (PIG) (PIG) (SGU) (PIU) (PIU) (PIG)
                 (PIG) (SGG) (SGU) (SGG) (SGU)
 The electronic state is 1-SGG.
 Alpha  occ. eigenvalues --  -10.76533 -10.76316  -0.49507  -0.03428   0.08168
 Alpha  occ. eigenvalues --    0.11210   0.11210
 Alpha virt. eigenvalues --    0.38586   0.43204   0.43730   0.43730   0.45958
 Alpha virt. eigenvalues --    0.45958   0.51234   0.56673   0.69637   0.69637
 Alpha virt. eigenvalues --    0.95578   1.08850   1.16888   1.16888   1.27707
 Alpha virt. eigenvalues --    1.27707   1.32505   1.40376   1.61793   1.93091
 Alpha virt. eigenvalues --    1.93091   1.99015   1.99015   2.31008   2.31008
 Alpha virt. eigenvalues --    2.56035   2.82974   2.82974   3.11006   3.57572
 Alpha virt. eigenvalues --    3.57572   3.76570   3.76570   3.99136   4.09154
 Alpha virt. eigenvalues --   24.84106  25.92437
          Condensed to atoms (all electrons):
               1          2
     1  C    5.856529   1.143471
     2  C    1.143471   5.856529
 Mulliken charges:
               1
     1  C   -1.000000
     2  C   -1.000000
 Sum of Mulliken charges =  -2.00000
 Mulliken charges with hydrogens summed into heavy atoms:
               1
     1  C   -1.000000
     2  C   -1.000000
 Electronic spatial extent (au):  <R**2>=             82.0808
 Charge=             -2.0000 electrons
 Dipole moment (field-independent basis, Debye):
    X=             -0.0000    Y=              0.0000    Z=              0.0000  Tot=              0.0000
 Quadrupole moment (field-independent basis, Debye-Ang):
   XX=            -25.8121   YY=            -25.8121   ZZ=            -34.4251
   XY=              0.0000   XZ=              0.0000   YZ=             -0.0000
 Traceless Quadrupole moment (field-independent basis, Debye-Ang):
   XX=              2.8710   YY=              2.8710   ZZ=             -5.7420
   XY=              0.0000   XZ=              0.0000   YZ=             -0.0000
 Octapole moment (field-independent basis, Debye-Ang**2):
  XXX=             -0.0000  YYY=             -0.0000  ZZZ=              0.0000  XYY=             -0.0000
  XXY=             -0.0000  XXZ=             -0.0000  XZZ=             -0.0000  YZZ=              0.0000
  YYZ=              0.0000  XYZ=             -0.0000
 Hexadecapole moment (field-independent basis, Debye-Ang**3):
 XXXX=            -79.2616 YYYY=            -79.2616 ZZZZ=           -172.2087 XXXY=              0.0000
 XXXZ=              0.0000 YYYX=              0.0000 YYYZ=             -0.0000 ZZZX=              0.0000
 ZZZY=             -0.0000 XXYY=            -26.4205 XXZZ=            -39.7780 YYZZ=            -39.7780
 XXYZ=             -0.0000 YYXZ=              0.0000 ZZXY=              0.0000
 N-N= 1.465413814855D+01 E-N=-2.119005656932D+02  KE= 7.529501929458D+01
 Symmetry AG   KE= 3.742168619335D+01
 Symmetry B1G  KE= 7.038093946436D-35
 Symmetry B2G  KE=-1.467827742752D-19
 Symmetry B3G  KE= 5.474155904332D-19
 Symmetry AU   KE= 2.146841127621D-34
 Symmetry B1U  KE= 3.467719725320D+01
 Symmetry B2U  KE= 1.598067924009D+00
 Symmetry B3U  KE= 1.598067924009D+00
 No NMR shielding tensors so no spin-rotation constants.
 Leave Link  601 at Mon Feb  3 15:47:47 2025, MaxMem=  3221225472 cpu:               1.5 elap:               0.3
 (Enter /opt/g16/l701.exe)
 ... and contract with generalized density number  2.
 Compute integral first derivatives.
 Leave Link  701 at Mon Feb  3 15:47:47 2025, MaxMem=  3221225472 cpu:               1.2 elap:               0.3
 (Enter /opt/g16/l702.exe)
 L702 exits ... SP integral derivatives will be done elsewhere.
 Leave Link  702 at Mon Feb  3 15:47:47 2025, MaxMem=  3221225472 cpu:               0.2 elap:               0.0
 (Enter /opt/g16/l703.exe)
 Integral derivatives from FoFJK, PRISM(SPDF).
 Compute integral first derivatives, UseDBF=F ICtDFT=           0.
 Calling FoFJK, ICntrl=  10002127 FMM=F ISym2X=1 I1Cent= 0 IOpClX= 0 NMat=1 NMatS=1 NMatT=0.
 FoFJK:  IHMeth= 1 ICntrl=10002127 DoSepK=F KAlg= 0 I1Cent=           0 FoldK=F
 IRaf=         0 NMat=       1 IRICut=       1 DoRegI=T DoRafI=F ISym2E= 1 IDoP0=0 IntGTp=1.
 FoFCou: FMM=F IPFlag=           0 FMFlag=      100000 FMFlg1=         800
         NFxFlg=           0 DoJE=F BraDBF=F KetDBF=F FulRan=T
         wScrn=  0.000000 ICntrl=  10002127 IOpCl=  0 I1Cent=           0 NGrid=           0
         NMat0=    1 NMatS0=      1 NMatT0=    0 NMatD0=    1 NMtDS0=    0 NMtDT0=    0
 Petite list used in FoFCou.
 Leave Link  703 at Mon Feb  3 15:47:48 2025, MaxMem=  3221225472 cpu:               1.9 elap:               0.3
 (Enter /opt/g16/l716.exe)
 Dipole        =-1.50426058D-16 2.80388317D-33-1.77635684D-15
 ***** Axes restored to original set *****
 -------------------------------------------------------------------
 Center     Atomic                   Forces (Hartrees/Bohr)
 Number     Number              X              Y              Z
 -------------------------------------------------------------------
      1        6           0.000000000   -0.000000000    0.010401280
      2        6          -0.000000000    0.000000000   -0.010401280
 -------------------------------------------------------------------
 Cartesian Forces:  Max     0.010401280 RMS     0.006005182
 Leave Link  716 at Mon Feb  3 15:47:48 2025, MaxMem=  3221225472 cpu:               0.4 elap:               0.2
 (Enter /opt/g16/l103.exe)

 GradGradGradGradGradGradGradGradGradGradGradGradGradGradGradGradGradGrad
 Berny optimization.
 FormGI is forming the generalized inverse of G from B-inverse, IUseBI=4.
 Internal  Forces:  Max     0.010401280 RMS     0.010401280
 Search for a local minimum.
 Step number   1 out of a maximum of   20
 All quantities printed in internal units (Hartrees-Bohrs-Radians)
 RMS Force = .10401D-01 SwitMx=.10000D-02 MixMth= 1
 Mixed Optimization -- RFO/linear search
 Second derivative matrix not updated -- first step.
 The second derivative matrix:
                          R1
           R1           0.67193
 ITU=  0
     Eigenvalues ---    0.67193
 RFO step:  Lambda=-1.60969899D-04 EMin= 6.71931351D-01
 Linear search not attempted -- first point.
 Iteration  1 RMS(Cart)=  0.01094316 RMS(Int)=  0.00000000
 Iteration  2 RMS(Cart)=  0.00000000 RMS(Int)=  0.00000000
 ITry= 1 IFail=0 DXMaxC= 7.74D-03 DCOld= 1.00D+10 DXMaxT= 3.00D-01 DXLimC= 3.00D+00 Rises=F
 ClnCor:  largest displacement from symmetrization is 4.74D-19 for atom     1.
 Variable       Old X    -DE/DX   Delta X   Delta X   Delta X     New X
                                 (Linear)    (Quad)   (Total)
    R1        2.45664  -0.01040   0.00000  -0.01548  -0.01548   2.44117
         Item               Value     Threshold  Converged?
 Maximum Force            0.010401     0.000450     NO 
 RMS     Force            0.010401     0.000300     NO 
 Maximum Displacement     0.007738     0.001800     NO 
 RMS     Displacement     0.010943     0.001200     NO 
 Predicted change in Energy=-8.050423D-05
 Lowest energy point so far.  Saving SCF results.
 GradGradGradGradGradGradGradGradGradGradGradGradGradGradGradGradGradGrad

 Leave Link  103 at Mon Feb  3 15:47:48 2025, MaxMem=  3221225472 cpu:               0.7 elap:               0.1
 (Enter /opt/g16/l202.exe)
                          Input orientation:                          
 ---------------------------------------------------------------------
 Center     Atomic      Atomic             Coordinates (Angstroms)
 Number     Number       Type             X           Y           Z
 ---------------------------------------------------------------------
      1          6           0        0.000000    0.000000    0.004095
      2          6           0        0.000000    0.000000    1.295905
 ---------------------------------------------------------------------
 Stoichiometry    C2(2-)
 Framework group  D*H[C*(C.C)]
 Deg. of freedom     1
 Full point group                 D*H     NOp   8
 RotChk:  IX=0 Diff= 0.00D+00
 Largest Abelian subgroup         D2H     NOp   8
 Largest concise Abelian subgroup C2      NOp   2
                         Standard orientation:                         
 ---------------------------------------------------------------------
 Center     Atomic      Atomic             Coordinates (Angstroms)
 Number     Number       Type             X           Y           Z
 ---------------------------------------------------------------------
      1          6           0        0.000000    0.000000    0.645905
      2          6           0        0.000000    0.000000   -0.645905
 ---------------------------------------------------------------------
 Rotational constants (GHZ):           0.0000000          50.4740727          50.4740727
 Leave Link  202 at Mon Feb  3 15:47:48 2025, MaxMem=  3221225472 cpu:               0.0 elap:               0.0
 (Enter /opt/g16/l301.exe)
 Standard basis: 6-311++G(d,p) (5D, 7F)
 Ernie: Thresh=  0.10000D-02 Tol=  0.10000D-05 Strict=F.
 There are    12 symmetry adapted cartesian basis functions of AG  symmetry.
 There are     1 symmetry adapted cartesian basis functions of B1G symmetry.
 There are     5 symmetry adapted cartesian basis functions of B2G symmetry.
 There are     5 symmetry adapted cartesian basis functions of B3G symmetry.
 There are     1 symmetry adapted cartesian basis functions of AU  symmetry.
 There are    12 symmetry adapted cartesian basis functions of B1U symmetry.
 There are     5 symmetry adapted cartesian basis functions of B2U symmetry.
 There are     5 symmetry adapted cartesian basis functions of B3U symmetry.
 There are    11 symmetry adapted basis functions of AG  symmetry.
 There are     1 symmetry adapted basis functions of B1G symmetry.
 There are     5 symmetry adapted basis functions of B2G symmetry.
 There are     5 symmetry adapted basis functions of B3G symmetry.
 There are     1 symmetry adapted basis functions of AU  symmetry.
 There are    11 symmetry adapted basis functions of B1U symmetry.
 There are     5 symmetry adapted basis functions of B2U symmetry.
 There are     5 symmetry adapted basis functions of B3U symmetry.
    44 basis functions,    72 primitive gaussians,    46 cartesian basis functions
     7 alpha electrons        7 beta electrons
       nuclear repulsion energy        14.7470391687 Hartrees.
 IExCor=    0 DFT=F Ex=HF Corr=None ExCW=0 ScaHFX=  1.000000
 ScaDFX=  1.000000  1.000000  1.000000  1.000000 ScalE2=  1.000000  1.000000
 IRadAn=      5 IRanWt=     -1 IRanGd=            0 ICorTp=0 IEmpDi=  4
 NAtoms=    2 NActive=    2 NUniq=    1 SFac= 4.00D+00 NAtFMM=   60 NAOKFM=F Big=F
 Integral buffers will be    131072 words long.
 Raffenetti 1 integral format.
 Two-electron integral symmetry is turned on.
 Leave Link  301 at Mon Feb  3 15:47:48 2025, MaxMem=  3221225472 cpu:               0.3 elap:               0.0
 (Enter /opt/g16/l302.exe)
 NPDir=0 NMtPBC=     1 NCelOv=     1 NCel=       1 NClECP=     1 NCelD=      1
         NCelK=      1 NCelE2=     1 NClLst=     1 CellRange=     0.0.
 One-electron integrals computed using PRISM.
 One-electron integral symmetry used in STVInt
 NBasis=    44 RedAO= T EigKep=  1.91D-04  NBF=    11     1     5     5     1    11     5     5
 NBsUse=    44 1.00D-06 EigRej= -1.00D+00 NBFU=    11     1     5     5     1    11     5     5
 Leave Link  302 at Mon Feb  3 15:47:48 2025, MaxMem=  3221225472 cpu:               0.9 elap:               0.1
 (Enter /opt/g16/l303.exe)
 DipDrv:  MaxL=1.
 Leave Link  303 at Mon Feb  3 15:47:48 2025, MaxMem=  3221225472 cpu:               0.2 elap:               0.0
 (Enter /opt/g16/l401.exe)
 Initial guess from the checkpoint file:  "dicmolecule.chk"
 B after Tr=    -0.000000    0.000000    0.000000
         Rot=    1.000000    0.000000    0.000000    0.000000 Ang=   0.00 deg.
 Guess basis will be translated and rotated to current coordinates.
 JPrj=2 DoOrth=T DoCkMO=T.
 Initial guess orbital symmetries:
       Occupied  (SGG) (SGU) (SGG) (SGU) (SGG) (PIU) (PIU)
       Virtual   (SGU) (SGG) (PIG) (PIG) (PIU) (PIU) (SGG) (SGU)
                 (PIG) (PIG) (SGU) (SGG) (PIU) (PIU) (PIG) (PIG)
                 (SGG) (SGU) (SGU) (DLTG) (DLTG) (PIU) (PIU) (DLTU)
                 (DLTU) (SGG) (PIG) (PIG) (SGU) (PIU) (PIU) (PIG)
                 (PIG) (SGG) (SGU) (SGG) (SGU)
 The electronic state of the initial guess is 1-SGG.
 Leave Link  401 at Mon Feb  3 15:47:48 2025, MaxMem=  3221225472 cpu:               0.6 elap:               0.1
 (Enter /opt/g16/l502.exe)
 Keep R1 ints in memory in symmetry-blocked form, NReq=2147414.
 FoFCou: FMM=F IPFlag=           0 FMFlag=           0 FMFlg1=           0
         NFxFlg=           0 DoJE=F BraDBF=F KetDBF=F FulRan=T
         wScrn=  0.000000 ICntrl=       600 IOpCl=  0 I1Cent=           0 NGrid=           0
         NMat0=    1 NMatS0=    990 NMatT0=    0 NMatD0=    1 NMtDS0=    0 NMtDT0=    0
 Petite list used in FoFCou.
 Closed shell SCF:
 Using DIIS extrapolation, IDIIS=  1040.
 NGot=  3221225472 LenX=  3221147093 LenY=  3221144536
 Requested convergence on RMS density matrix=1.00D-08 within 128 cycles.
 Requested convergence on MAX density matrix=1.00D-06.
 Requested convergence on             energy=1.00D-06.
 No special actions if energy rises.

 Cycle   1  Pass 1  IDiag  1:
 E= -75.4012195265175    
 DIIS: error= 8.26D-04 at cycle   1 NSaved=   1.
 NSaved= 1 IEnMin= 1 EnMin= -75.4012195265175     IErMin= 1 ErrMin= 8.26D-04
 ErrMax= 8.26D-04  0.00D+00 EMaxC= 1.00D-01 BMatC= 2.86D-05 BMatP= 2.86D-05
 IDIUse=3 WtCom= 9.92D-01 WtEn= 8.26D-03
 Coeff-Com:  0.100D+01
 Coeff-En:   0.100D+01
 Coeff:      0.100D+01
 Gap=     0.277 Goal=   None    Shift=    0.000
 RMSDP=2.20D-04 MaxDP=2.15D-03              OVMax= 2.77D-03

 Cycle   2  Pass 1  IDiag  1:
 E= -75.4012417610409     Delta-E=       -0.000022234523 Rises=F Damp=F
 DIIS: error= 4.34D-04 at cycle   2 NSaved=   2.
 NSaved= 2 IEnMin= 2 EnMin= -75.4012417610409     IErMin= 2 ErrMin= 4.34D-04
 ErrMax= 4.34D-04  0.00D+00 EMaxC= 1.00D-01 BMatC= 4.82D-06 BMatP= 2.86D-05
 IDIUse=3 WtCom= 9.96D-01 WtEn= 4.34D-03
 Coeff-Com:  0.198D+00 0.802D+00
 Coeff-En:   0.000D+00 0.100D+01
 Coeff:      0.197D+00 0.803D+00
 Gap=     0.274 Goal=   None    Shift=    0.000
 RMSDP=1.23D-04 MaxDP=1.24D-03 DE=-2.22D-05 OVMax= 1.63D-03

 Cycle   3  Pass 1  IDiag  1:
 E= -75.4012479469521     Delta-E=       -0.000006185911 Rises=F Damp=F
 DIIS: error= 2.25D-04 at cycle   3 NSaved=   3.
 NSaved= 3 IEnMin= 3 EnMin= -75.4012479469521     IErMin= 3 ErrMin= 2.25D-04
 ErrMax= 2.25D-04  0.00D+00 EMaxC= 1.00D-01 BMatC= 7.37D-07 BMatP= 4.82D-06
 IDIUse=3 WtCom= 9.98D-01 WtEn= 2.25D-03
 Coeff-Com: -0.723D-01 0.195D+00 0.877D+00
 Coeff-En:   0.000D+00 0.000D+00 0.100D+01
 Coeff:     -0.721D-01 0.195D+00 0.877D+00
 Gap=     0.275 Goal=   None    Shift=    0.000
 RMSDP=5.69D-05 MaxDP=5.11D-04 DE=-6.19D-06 OVMax= 7.36D-04

 Cycle   4  Pass 1  IDiag  1:
 E= -75.4012495387636     Delta-E=       -0.000001591811 Rises=F Damp=F
 DIIS: error= 5.55D-05 at cycle   4 NSaved=   4.
 NSaved= 4 IEnMin= 4 EnMin= -75.4012495387636     IErMin= 4 ErrMin= 5.55D-05
 ErrMax= 5.55D-05  0.00D+00 EMaxC= 1.00D-01 BMatC= 5.17D-08 BMatP= 7.37D-07
 IDIUse=1 WtCom= 1.00D+00 WtEn= 0.00D+00
 Coeff-Com:  0.202D-01-0.155D+00-0.277D+00 0.141D+01
 Coeff:      0.202D-01-0.155D+00-0.277D+00 0.141D+01
 Gap=     0.275 Goal=   None    Shift=    0.000
 RMSDP=5.56D-05 MaxDP=5.32D-04 DE=-1.59D-06 OVMax= 3.90D-04

 Cycle   5  Pass 1  IDiag  1:
 E= -75.4012498290502     Delta-E=       -0.000000290287 Rises=F Damp=F
 DIIS: error= 1.91D-05 at cycle   5 NSaved=   5.
 NSaved= 5 IEnMin= 5 EnMin= -75.4012498290502     IErMin= 5 ErrMin= 1.91D-05
 ErrMax= 1.91D-05  0.00D+00 EMaxC= 1.00D-01 BMatC= 5.02D-09 BMatP= 5.17D-08
 IDIUse=1 WtCom= 1.00D+00 WtEn= 0.00D+00
 Coeff-Com: -0.701D-02 0.879D-01 0.131D+00-0.108D+01 0.187D+01
 Coeff:     -0.701D-02 0.879D-01 0.131D+00-0.108D+01 0.187D+01
 Gap=     0.275 Goal=   None    Shift=    0.000
 RMSDP=3.57D-05 MaxDP=3.37D-04 DE=-2.90D-07 OVMax= 2.38D-04

 Cycle   6  Pass 1  IDiag  1:
 E= -75.4012498764455     Delta-E=       -0.000000047395 Rises=F Damp=F
 DIIS: error= 2.27D-06 at cycle   6 NSaved=   6.
 NSaved= 6 IEnMin= 6 EnMin= -75.4012498764455     IErMin= 6 ErrMin= 2.27D-06
 ErrMax= 2.27D-06  0.00D+00 EMaxC= 1.00D-01 BMatC= 1.36D-10 BMatP= 5.02D-09
 IDIUse=1 WtCom= 1.00D+00 WtEn= 0.00D+00
 Coeff-Com:  0.144D-02-0.184D-01-0.305D-01 0.293D+00-0.637D+00 0.139D+01
 Coeff:      0.144D-02-0.184D-01-0.305D-01 0.293D+00-0.637D+00 0.139D+01
 Gap=     0.275 Goal=   None    Shift=    0.000
 RMSDP=6.26D-06 MaxDP=5.74D-05 DE=-4.74D-08 OVMax= 3.52D-05

 Cycle   7  Pass 1  IDiag  1:
 E= -75.4012498772947     Delta-E=       -0.000000000849 Rises=F Damp=F
 DIIS: error= 2.91D-07 at cycle   7 NSaved=   7.
 NSaved= 7 IEnMin= 7 EnMin= -75.4012498772947     IErMin= 7 ErrMin= 2.91D-07
 ErrMax= 2.91D-07  0.00D+00 EMaxC= 1.00D-01 BMatC= 2.71D-12 BMatP= 1.36D-10
 IDIUse=1 WtCom= 1.00D+00 WtEn= 0.00D+00
 Coeff-Com: -0.300D-04 0.121D-02 0.121D-02-0.251D-01 0.639D-01-0.273D+00
 Coeff-Com:  0.123D+01
 Coeff:     -0.300D-04 0.121D-02 0.121D-02-0.251D-01 0.639D-01-0.273D+00
 Coeff:      0.123D+01
 Gap=     0.275 Goal=   None    Shift=    0.000
 RMSDP=1.27D-06 MaxDP=1.20D-05 DE=-8.49D-10 OVMax= 5.49D-06

 Cycle   8  Pass 1  IDiag  1:
 E= -75.4012498773107     Delta-E=       -0.000000000016 Rises=F Damp=F
 DIIS: error= 4.24D-08 at cycle   8 NSaved=   8.
 NSaved= 8 IEnMin= 8 EnMin= -75.4012498773107     IErMin= 8 ErrMin= 4.24D-08
 ErrMax= 4.24D-08  0.00D+00 EMaxC= 1.00D-01 BMatC= 2.66D-14 BMatP= 2.71D-12
 IDIUse=1 WtCom= 1.00D+00 WtEn= 0.00D+00
 Coeff-Com: -0.245D-04 0.271D-03 0.480D-03-0.338D-02 0.770D-02-0.107D-01
 Coeff-Com: -0.740D-01 0.108D+01
 Coeff:     -0.245D-04 0.271D-03 0.480D-03-0.338D-02 0.770D-02-0.107D-01
 Coeff:     -0.740D-01 0.108D+01
 Gap=     0.275 Goal=   None    Shift=    0.000
 RMSDP=1.16D-07 MaxDP=1.13D-06 DE=-1.60D-11 OVMax= 2.88D-07

 Cycle   9  Pass 1  IDiag  1:
 E= -75.4012498773109     Delta-E=       -0.000000000000 Rises=F Damp=F
 DIIS: error= 3.25D-09 at cycle   9 NSaved=   9.
 NSaved= 9 IEnMin= 9 EnMin= -75.4012498773109     IErMin= 9 ErrMin= 3.25D-09
 ErrMax= 3.25D-09  0.00D+00 EMaxC= 1.00D-01 BMatC= 2.11D-16 BMatP= 2.66D-14
 IDIUse=1 WtCom= 1.00D+00 WtEn= 0.00D+00
 Coeff-Com:  0.566D-05-0.668D-04-0.115D-03 0.857D-03-0.201D-02 0.349D-02
 Coeff-Com:  0.108D-01-0.253D+00 0.124D+01
 Coeff:      0.566D-05-0.668D-04-0.115D-03 0.857D-03-0.201D-02 0.349D-02
 Coeff:      0.108D-01-0.253D+00 0.124D+01
 Gap=     0.275 Goal=   None    Shift=    0.000
 RMSDP=3.35D-08 MaxDP=3.18D-07 DE=-1.42D-13 OVMax= 3.46D-08

 Cycle  10  Pass 1  IDiag  1:
 E= -75.4012498773109     Delta-E=       -0.000000000000 Rises=F Damp=F
 DIIS: error= 4.91D-10 at cycle  10 NSaved=  10.
 NSaved=10 IEnMin=10 EnMin= -75.4012498773109     IErMin=10 ErrMin= 4.91D-10
 ErrMax= 4.91D-10  0.00D+00 EMaxC= 1.00D-01 BMatC= 5.16D-18 BMatP= 2.11D-16
 IDIUse=1 WtCom= 1.00D+00 WtEn= 0.00D+00
 Coeff-Com: -0.110D-05 0.130D-04 0.231D-04-0.168D-03 0.396D-03-0.723D-03
 Coeff-Com: -0.220D-02 0.566D-01-0.348D+00 0.129D+01
 Coeff:     -0.110D-05 0.130D-04 0.231D-04-0.168D-03 0.396D-03-0.723D-03
 Coeff:     -0.220D-02 0.566D-01-0.348D+00 0.129D+01
 Gap=     0.275 Goal=   None    Shift=    0.000
 RMSDP=5.70D-09 MaxDP=5.38D-08 DE=-1.42D-14 OVMax= 5.50D-09

 SCF Done:  E(RHF) =  -75.4012498773     A.U. after   10 cycles
            NFock= 10  Conv=0.57D-08     -V/T= 2.0011
 KE= 7.532116746133D+01 PE=-2.121238666662D+02 EE= 4.665441015889D+01
 Leave Link  502 at Mon Feb  3 15:47:48 2025, MaxMem=  3221225472 cpu:               1.3 elap:               0.2
 (Enter /opt/g16/l801.exe)
 Range of M.O.s used for correlation:     1    44
 NBasis=    44 NAE=     7 NBE=     7 NFC=     0 NFV=     0
 NROrb=     44 NOA=     7 NOB=     7 NVA=    37 NVB=    37

 **** Warning!!: The largest alpha MO coefficient is  0.37833824D+02

 Leave Link  801 at Mon Feb  3 15:47:48 2025, MaxMem=  3221225472 cpu:               0.2 elap:               0.0
 (Enter /opt/g16/l906.exe)
 FulOut=F Deriv=T AODrv=T NAtomX=     2
   MMem=       13893  MDisk=           7 MDiskD=           7
  W3Min=       14168 MinDsk=       83143 NBas6D=          46
 NBas2D=        1159    NTT=        1081    LW2=     2040000
    MDV=  3221197636 MDiskM=      971979 NBas2p=         630
 Fully direct method using O(ONN) memory.
 IMap=   1   2   3   4   5   6   7
 JobTyp=1 Pass  1:  I=   1 to   7 NPSUse=  8 ParTrn=T ParDer=T DoDerP=T.
 Spin components of T(2) and E(2):
     alpha-alpha T2 =       0.2211381451D-01 E2=     -0.4064796097D-01
     alpha-beta  T2 =       0.1149566477D+00 E2=     -0.2431746703D+00
     beta-beta   T2 =       0.2211381451D-01 E2=     -0.4064796097D-01
 The integrals were generated   1 times.
 ANorm=    0.1076654205D+01
 E2 =    -0.3244705923D+00 EUMP2 =    -0.75725720469595D+02
 Leave Link  906 at Mon Feb  3 15:47:48 2025, MaxMem=  3221225472 cpu:               0.8 elap:               0.1
 (Enter /opt/g16/l1002.exe)
 Minotr:  Closed shell wavefunction.
          Computing MP2/KS-MP2 derivatives.
          Using Z-Vector for PSCF gradient.
          Skipping F1 and S1 gradient terms here.
          IDoAtm=11
          Direct CPHF calculation.
          Differentiating once with respect to electric field.
                with respect to dipole field.
          Differentiating once with respect to nuclear coordinates.
          Using symmetry in CPHF.
          Requested convergence is 1.0D-10 RMS, and 1.0D-09 maximum.
          NewPWx=F KeepS1=T KeepF1=T KeepIn=T MapXYZ=F SortEE=F KeepMc=T.
 Keep R1 ints in memory in symmetry-blocked form, NReq=2147932.
 FoFCou: FMM=F IPFlag=           0 FMFlag=           0 FMFlg1=           0
         NFxFlg=           0 DoJE=F BraDBF=F KetDBF=F FulRan=T
         wScrn=  0.000000 ICntrl=       600 IOpCl=  0 I1Cent=           0 NGrid=           0
         NMat0=    1 NMatS0=    990 NMatT0=    0 NMatD0=    1 NMtDS0=    0 NMtDT0=    0
 Petite list used in FoFCou.
          MDV=    3221225472 using IRadAn=       5.
          Solving linear equations separately, MaxMat=       0.
          There are     1 degrees of freedom in the 1st order CPHF.  IDoFFX=0 NUNeed=     1.
 LinEq1:  Iter=  0 NonCon=     1 RMS=1.67D-02 Max=1.80D-01 NDo=     1
 AX will form     1 AO Fock derivatives at one time.
 LinEq1:  Iter=  1 NonCon=     1 RMS=5.66D-03 Max=4.95D-02 NDo=     1
 LinEq1:  Iter=  2 NonCon=     1 RMS=3.81D-03 Max=4.08D-02 NDo=     1
 LinEq1:  Iter=  3 NonCon=     1 RMS=4.61D-04 Max=3.23D-03 NDo=     1
 LinEq1:  Iter=  4 NonCon=     1 RMS=7.89D-05 Max=5.75D-04 NDo=     1
 LinEq1:  Iter=  5 NonCon=     1 RMS=9.06D-06 Max=5.63D-05 NDo=     1
 LinEq1:  Iter=  6 NonCon=     1 RMS=8.63D-07 Max=5.98D-06 NDo=     1
 LinEq1:  Iter=  7 NonCon=     1 RMS=9.21D-08 Max=6.38D-07 NDo=     1
 LinEq1:  Iter=  8 NonCon=     1 RMS=7.10D-09 Max=5.20D-08 NDo=     1
 LinEq1:  Iter=  9 NonCon=     1 RMS=6.29D-10 Max=3.99D-09 NDo=     1
 LinEq1:  Iter= 10 NonCon=     0 RMS=5.20D-11 Max=3.47D-10 NDo=     1
 Linear equations converged to 1.000D-10 1.000D-09 after    10 iterations.
 End of Minotr F.D. properties file   721 does not exist.
 End of Minotr F.D. properties file   722 does not exist.
 End of Minotr F.D. properties file   788 does not exist.
 Leave Link 1002 at Mon Feb  3 15:47:49 2025, MaxMem=  3221225472 cpu:               3.2 elap:               0.4
 (Enter /opt/g16/l701.exe)
 ... and contract with generalized density number  2.
 Compute integral first derivatives.
 Leave Link  701 at Mon Feb  3 15:47:49 2025, MaxMem=  3221225472 cpu:               0.9 elap:               0.1
 (Enter /opt/g16/l702.exe)
 L702 exits ... SP integral derivatives will be done elsewhere.
 Leave Link  702 at Mon Feb  3 15:47:49 2025, MaxMem=  3221225472 cpu:               0.2 elap:               0.0
 (Enter /opt/g16/l703.exe)
 Integral derivatives from FoFJK, PRISM(SPDF).
 Compute integral first derivatives, UseDBF=F ICtDFT=           0.
 Calling FoFJK, ICntrl=  10002127 FMM=F ISym2X=1 I1Cent= 0 IOpClX= 0 NMat=1 NMatS=1 NMatT=0.
 FoFJK:  IHMeth= 1 ICntrl=10002127 DoSepK=F KAlg= 0 I1Cent=           0 FoldK=F
 IRaf=         0 NMat=       1 IRICut=       1 DoRegI=T DoRafI=F ISym2E= 1 IDoP0=0 IntGTp=1.
 FoFCou: FMM=F IPFlag=           0 FMFlag=      100000 FMFlg1=         800
         NFxFlg=           0 DoJE=F BraDBF=F KetDBF=F FulRan=T
         wScrn=  0.000000 ICntrl=  10002127 IOpCl=  0 I1Cent=           0 NGrid=           0
         NMat0=    1 NMatS0=      1 NMatT0=    0 NMatD0=    1 NMtDS0=    0 NMtDT0=    0
 Petite list used in FoFCou.
 Leave Link  703 at Mon Feb  3 15:47:49 2025, MaxMem=  3221225472 cpu:               1.4 elap:               0.2
 (Enter /opt/g16/l716.exe)
 Dipole        =-1.49478428D-16-2.11701831D-33-3.55271368D-15
 ***** Axes restored to original set *****
 -------------------------------------------------------------------
 Center     Atomic                   Forces (Hartrees/Bohr)
 Number     Number              X              Y              Z
 -------------------------------------------------------------------
      1        6           0.000000000   -0.000000000    0.000382671
      2        6          -0.000000000    0.000000000   -0.000382671
 -------------------------------------------------------------------
 Cartesian Forces:  Max     0.000382671 RMS     0.000220935
 Leave Link  716 at Mon Feb  3 15:47:49 2025, MaxMem=  3221225472 cpu:               0.2 elap:               0.0
 (Enter /opt/g16/l103.exe)

 GradGradGradGradGradGradGradGradGradGradGradGradGradGradGradGradGradGrad
 Berny optimization.
 Using GEDIIS/GDIIS optimizer.
 Red2BG is reusing G-inverse.
 Internal  Forces:  Max     0.000382671 RMS     0.000382671
 Search for a local minimum.
 Step number   2 out of a maximum of   20
 All quantities printed in internal units (Hartrees-Bohrs-Radians)
 RMS Force = .38267D-03 SwitMx=.10000D-02 MixMth= 2
 Mixed Optimization -- En-DIIS/RFO-DIIS
 Update second derivatives using D2CorX and points    1    2
 DE= -8.41D-05 DEPred=-8.05D-05 R= 1.04D+00
 TightC=F SS=  1.41D+00  RLast= 1.55D-02 DXNew= 5.0454D-01 4.6428D-02
 Trust test= 1.04D+00 RLast= 1.55D-02 DXMaxT set to 3.00D-01
 The second derivative matrix:
                          R1
           R1           0.64737
 ITU=  1  0
 Use linear search instead of GDIIS.
     Eigenvalues ---    0.64737
 RFO step:  Lambda= 0.00000000D+00 EMin= 6.47365527D-01
 Quartic linear search produced a step of  0.03720.
 Iteration  1 RMS(Cart)=  0.00040711 RMS(Int)=  0.00000000
 Iteration  2 RMS(Cart)=  0.00000000 RMS(Int)=  0.00000000
 ITry= 1 IFail=0 DXMaxC= 2.88D-04 DCOld= 1.00D+10 DXMaxT= 3.00D-01 DXLimC= 3.00D+00 Rises=F
 ClnCor:  largest displacement from symmetrization is 1.76D-20 for atom     1.
 Variable       Old X    -DE/DX   Delta X   Delta X   Delta X     New X
                                 (Linear)    (Quad)   (Total)
    R1        2.44117  -0.00038  -0.00058  -0.00000  -0.00058   2.44059
         Item               Value     Threshold  Converged?
 Maximum Force            0.000383     0.000450     YES
 RMS     Force            0.000383     0.000300     NO 
 Maximum Displacement     0.000288     0.001800     YES
 RMS     Displacement     0.000407     0.001200     YES
 Predicted change in Energy=-1.130258D-07
 Lowest energy point so far.  Saving SCF results.
 GradGradGradGradGradGradGradGradGradGradGradGradGradGradGradGradGradGrad

 Leave Link  103 at Mon Feb  3 15:47:49 2025, MaxMem=  3221225472 cpu:               0.0 elap:               0.0
 (Enter /opt/g16/l202.exe)
                          Input orientation:                          
 ---------------------------------------------------------------------
 Center     Atomic      Atomic             Coordinates (Angstroms)
 Number     Number       Type             X           Y           Z
 ---------------------------------------------------------------------
      1          6           0        0.000000    0.000000    0.004247
      2          6           0        0.000000    0.000000    1.295753
 ---------------------------------------------------------------------
 Stoichiometry    C2(2-)
 Framework group  D*H[C*(C.C)]
 Deg. of freedom     1
 Full point group                 D*H     NOp   8
 RotChk:  IX=0 Diff= 0.00D+00
 Largest Abelian subgroup         D2H     NOp   8
 Largest concise Abelian subgroup C2      NOp   2
                         Standard orientation:                         
 ---------------------------------------------------------------------
 Center     Atomic      Atomic             Coordinates (Angstroms)
 Number     Number       Type             X           Y           Z
 ---------------------------------------------------------------------
      1          6           0        0.000000    0.000000    0.645753
      2          6           0        0.000000    0.000000   -0.645753
 ---------------------------------------------------------------------
 Rotational constants (GHZ):           0.0000000          50.4978893          50.4978893
 Leave Link  202 at Mon Feb  3 15:47:49 2025, MaxMem=  3221225472 cpu:               0.0 elap:               0.0
 (Enter /opt/g16/l301.exe)
 Standard basis: 6-311++G(d,p) (5D, 7F)
 Ernie: Thresh=  0.10000D-02 Tol=  0.10000D-05 Strict=F.
 There are    12 symmetry adapted cartesian basis functions of AG  symmetry.
 There are     1 symmetry adapted cartesian basis functions of B1G symmetry.
 There are     5 symmetry adapted cartesian basis functions of B2G symmetry.
 There are     5 symmetry adapted cartesian basis functions of B3G symmetry.
 There are     1 symmetry adapted cartesian basis functions of AU  symmetry.
 There are    12 symmetry adapted cartesian basis functions of B1U symmetry.
 There are     5 symmetry adapted cartesian basis functions of B2U symmetry.
 There are     5 symmetry adapted cartesian basis functions of B3U symmetry.
 There are    11 symmetry adapted basis functions of AG  symmetry.
 There are     1 symmetry adapted basis functions of B1G symmetry.
 There are     5 symmetry adapted basis functions of B2G symmetry.
 There are     5 symmetry adapted basis functions of B3G symmetry.
 There are     1 symmetry adapted basis functions of AU  symmetry.
 There are    11 symmetry adapted basis functions of B1U symmetry.
 There are     5 symmetry adapted basis functions of B2U symmetry.
 There are     5 symmetry adapted basis functions of B3U symmetry.
    44 basis functions,    72 primitive gaussians,    46 cartesian basis functions
     7 alpha electrons        7 beta electrons
       nuclear repulsion energy        14.7505180089 Hartrees.
 IExCor=    0 DFT=F Ex=HF Corr=None ExCW=0 ScaHFX=  1.000000
 ScaDFX=  1.000000  1.000000  1.000000  1.000000 ScalE2=  1.000000  1.000000
 IRadAn=      5 IRanWt=     -1 IRanGd=            0 ICorTp=0 IEmpDi=  4
 NAtoms=    2 NActive=    2 NUniq=    1 SFac= 4.00D+00 NAtFMM=   60 NAOKFM=F Big=F
 Integral buffers will be    131072 words long.
 Raffenetti 1 integral format.
 Two-electron integral symmetry is turned on.
 Leave Link  301 at Mon Feb  3 15:47:49 2025, MaxMem=  3221225472 cpu:               0.3 elap:               0.0
 (Enter /opt/g16/l302.exe)
 NPDir=0 NMtPBC=     1 NCelOv=     1 NCel=       1 NClECP=     1 NCelD=      1
         NCelK=      1 NCelE2=     1 NClLst=     1 CellRange=     0.0.
 One-electron integrals computed using PRISM.
 One-electron integral symmetry used in STVInt
 NBasis=    44 RedAO= T EigKep=  1.90D-04  NBF=    11     1     5     5     1    11     5     5
 NBsUse=    44 1.00D-06 EigRej= -1.00D+00 NBFU=    11     1     5     5     1    11     5     5
 Leave Link  302 at Mon Feb  3 15:47:49 2025, MaxMem=  3221225472 cpu:               0.9 elap:               0.1
 (Enter /opt/g16/l303.exe)
 DipDrv:  MaxL=1.
 Leave Link  303 at Mon Feb  3 15:47:49 2025, MaxMem=  3221225472 cpu:               0.2 elap:               0.0
 (Enter /opt/g16/l401.exe)
 Initial guess from the checkpoint file:  "dicmolecule.chk"
 B after Tr=    -0.000000    0.000000    0.000000
         Rot=    1.000000    0.000000    0.000000    0.000000 Ang=   0.00 deg.
 Guess basis will be translated and rotated to current coordinates.
 JPrj=2 DoOrth=T DoCkMO=T.
 Initial guess orbital symmetries:
       Occupied  (SGG) (SGU) (SGG) (SGU) (SGG) (PIU) (PIU)
       Virtual   (SGU) (SGG) (PIG) (PIG) (PIU) (PIU) (SGG) (SGU)
                 (PIG) (PIG) (SGU) (SGG) (PIU) (PIU) (PIG) (PIG)
                 (SGG) (SGU) (SGU) (DLTG) (DLTG) (PIU) (PIU) (DLTU)
                 (DLTU) (SGG) (PIG) (PIG) (SGU) (PIU) (PIU) (PIG)
                 (PIG) (SGG) (SGU) (SGG) (SGU)
 The electronic state of the initial guess is 1-SGG.
 Leave Link  401 at Mon Feb  3 15:47:50 2025, MaxMem=  3221225472 cpu:               0.6 elap:               0.1
 (Enter /opt/g16/l502.exe)
 Keep R1 ints in memory in symmetry-blocked form, NReq=2147414.
 FoFCou: FMM=F IPFlag=           0 FMFlag=           0 FMFlg1=           0
         NFxFlg=           0 DoJE=F BraDBF=F KetDBF=F FulRan=T
         wScrn=  0.000000 ICntrl=       600 IOpCl=  0 I1Cent=           0 NGrid=           0
         NMat0=    1 NMatS0=    990 NMatT0=    0 NMatD0=    1 NMtDS0=    0 NMtDT0=    0
 Petite list used in FoFCou.
 Closed shell SCF:
 Using DIIS extrapolation, IDIIS=  1040.
 NGot=  3221225472 LenX=  3221147093 LenY=  3221144536
 Requested convergence on RMS density matrix=1.00D-08 within 128 cycles.
 Requested convergence on MAX density matrix=1.00D-06.
 Requested convergence on             energy=1.00D-06.
 No special actions if energy rises.

 Cycle   1  Pass 1  IDiag  1:
 E= -75.4012707042448    
 DIIS: error= 3.10D-05 at cycle   1 NSaved=   1.
 NSaved= 1 IEnMin= 1 EnMin= -75.4012707042448     IErMin= 1 ErrMin= 3.10D-05
 ErrMax= 3.10D-05  0.00D+00 EMaxC= 1.00D-01 BMatC= 4.03D-08 BMatP= 4.03D-08
 IDIUse=1 WtCom= 1.00D+00 WtEn= 0.00D+00
 Coeff-Com:  0.100D+01
 Coeff:      0.100D+01
 Gap=     0.275 Goal=   None    Shift=    0.000
 RMSDP=8.51D-06 MaxDP=8.27D-05              OVMax= 1.04D-04

 Cycle   2  Pass 1  IDiag  1:
 E= -75.4012707353155     Delta-E=       -0.000000031071 Rises=F Damp=F
 DIIS: error= 1.62D-05 at cycle   2 NSaved=   2.
 NSaved= 2 IEnMin= 2 EnMin= -75.4012707353155     IErMin= 2 ErrMin= 1.62D-05
 ErrMax= 1.62D-05  0.00D+00 EMaxC= 1.00D-01 BMatC= 6.78D-09 BMatP= 4.03D-08
 IDIUse=1 WtCom= 1.00D+00 WtEn= 0.00D+00
 Coeff-Com:  0.198D+00 0.802D+00
 Coeff:      0.198D+00 0.802D+00
 Gap=     0.275 Goal=   None    Shift=    0.000
 RMSDP=4.69D-06 MaxDP=4.82D-05 DE=-3.11D-08 OVMax= 6.14D-05

 Cycle   3  Pass 1  IDiag  1:
 E= -75.4012707440170     Delta-E=       -0.000000008702 Rises=F Damp=F
 DIIS: error= 8.43D-06 at cycle   3 NSaved=   3.
 NSaved= 3 IEnMin= 3 EnMin= -75.4012707440170     IErMin= 3 ErrMin= 8.43D-06
 ErrMax= 8.43D-06  0.00D+00 EMaxC= 1.00D-01 BMatC= 1.03D-09 BMatP= 6.78D-09
 IDIUse=1 WtCom= 1.00D+00 WtEn= 0.00D+00
 Coeff-Com: -0.717D-01 0.195D+00 0.877D+00
 Coeff:     -0.717D-01 0.195D+00 0.877D+00
 Gap=     0.275 Goal=   None    Shift=    0.000
 RMSDP=2.18D-06 MaxDP=1.95D-05 DE=-8.70D-09 OVMax= 2.75D-05

 Cycle   4  Pass 1  IDiag  1:
 E= -75.4012707462403     Delta-E=       -0.000000002223 Rises=F Damp=F
 DIIS: error= 2.06D-06 at cycle   4 NSaved=   4.
 NSaved= 4 IEnMin= 4 EnMin= -75.4012707462403     IErMin= 4 ErrMin= 2.06D-06
 ErrMax= 2.06D-06  0.00D+00 EMaxC= 1.00D-01 BMatC= 7.17D-11 BMatP= 1.03D-09
 IDIUse=1 WtCom= 1.00D+00 WtEn= 0.00D+00
 Coeff-Com:  0.202D-01-0.155D+00-0.281D+00 0.142D+01
 Coeff:      0.202D-01-0.155D+00-0.281D+00 0.142D+01
 Gap=     0.275 Goal=   None    Shift=    0.000
 RMSDP=2.12D-06 MaxDP=2.03D-05 DE=-2.22D-09 OVMax= 1.46D-05

 Cycle   5  Pass 1  IDiag  1:
 E= -75.4012707466469     Delta-E=       -0.000000000407 Rises=F Damp=F
 DIIS: error= 7.17D-07 at cycle   5 NSaved=   5.
 NSaved= 5 IEnMin= 5 EnMin= -75.4012707466469     IErMin= 5 ErrMin= 7.17D-07
 ErrMax= 7.17D-07  0.00D+00 EMaxC= 1.00D-01 BMatC= 7.02D-12 BMatP= 7.17D-11
 IDIUse=1 WtCom= 1.00D+00 WtEn= 0.00D+00
 Coeff-Com: -0.706D-02 0.874D-01 0.134D+00-0.108D+01 0.187D+01
 Coeff:     -0.706D-02 0.874D-01 0.134D+00-0.108D+01 0.187D+01
 Gap=     0.275 Goal=   None    Shift=    0.000
 RMSDP=1.34D-06 MaxDP=1.27D-05 DE=-4.07D-10 OVMax= 8.91D-06

 Cycle   6  Pass 1  IDiag  1:
 E= -75.4012707467131     Delta-E=       -0.000000000066 Rises=F Damp=F
 DIIS: error= 8.42D-08 at cycle   6 NSaved=   6.
 NSaved= 6 IEnMin= 6 EnMin= -75.4012707467131     IErMin= 6 ErrMin= 8.42D-08
 ErrMax= 8.42D-08  0.00D+00 EMaxC= 1.00D-01 BMatC= 1.89D-13 BMatP= 7.02D-12
 IDIUse=1 WtCom= 1.00D+00 WtEn= 0.00D+00
 Coeff-Com:  0.147D-02-0.184D-01-0.317D-01 0.296D+00-0.640D+00 0.139D+01
 Coeff:      0.147D-02-0.184D-01-0.317D-01 0.296D+00-0.640D+00 0.139D+01
 Gap=     0.275 Goal=   None    Shift=    0.000
 RMSDP=2.32D-07 MaxDP=2.13D-06 DE=-6.62D-11 OVMax= 1.31D-06

 Cycle   7  Pass 1  IDiag  1:
 E= -75.4012707467145     Delta-E=       -0.000000000001 Rises=F Damp=F
 DIIS: error= 1.09D-08 at cycle   7 NSaved=   7.
 NSaved= 7 IEnMin= 7 EnMin= -75.4012707467145     IErMin= 7 ErrMin= 1.09D-08
 ErrMax= 1.09D-08  0.00D+00 EMaxC= 1.00D-01 BMatC= 3.67D-15 BMatP= 1.89D-13
 IDIUse=1 WtCom= 1.00D+00 WtEn= 0.00D+00
 Coeff-Com: -0.490D-04 0.139D-02 0.165D-02-0.279D-01 0.691D-01-0.281D+00
 Coeff-Com:  0.124D+01
 Coeff:     -0.490D-04 0.139D-02 0.165D-02-0.279D-01 0.691D-01-0.281D+00
 Coeff:      0.124D+01
 Gap=     0.275 Goal=   None    Shift=    0.000
 RMSDP=4.71D-08 MaxDP=4.44D-07 DE=-1.39D-12 OVMax= 2.02D-07

 Cycle   8  Pass 1  IDiag  1:
 E= -75.4012707467145     Delta-E=       -0.000000000000 Rises=F Damp=F
 DIIS: error= 1.57D-09 at cycle   8 NSaved=   8.
 NSaved= 8 IEnMin= 8 EnMin= -75.4012707467145     IErMin= 8 ErrMin= 1.57D-09
 ErrMax= 1.57D-09  0.00D+00 EMaxC= 1.00D-01 BMatC= 3.57D-17 BMatP= 3.67D-15
 IDIUse=1 WtCom= 1.00D+00 WtEn= 0.00D+00
 Coeff-Com: -0.237D-04 0.259D-03 0.469D-03-0.325D-02 0.744D-02-0.108D-01
 Coeff-Com: -0.695D-01 0.108D+01
 Coeff:     -0.237D-04 0.259D-03 0.469D-03-0.325D-02 0.744D-02-0.108D-01
 Coeff:     -0.695D-01 0.108D+01
 Gap=     0.275 Goal=   None    Shift=    0.000
 RMSDP=4.18D-09 MaxDP=4.05D-08 DE=-2.84D-14 OVMax= 1.06D-08

 SCF Done:  E(RHF) =  -75.4012707467     A.U. after    8 cycles
            NFock=  8  Conv=0.42D-08     -V/T= 2.0011
 KE= 7.532215441917D+01 PE=-2.121322267603D+02 EE= 4.665828358555D+01
 Leave Link  502 at Mon Feb  3 15:47:50 2025, MaxMem=  3221225472 cpu:               1.2 elap:               0.2
 (Enter /opt/g16/l801.exe)
 Range of M.O.s used for correlation:     1    44
 NBasis=    44 NAE=     7 NBE=     7 NFC=     0 NFV=     0
 NROrb=     44 NOA=     7 NOB=     7 NVA=    37 NVB=    37

 **** Warning!!: The largest alpha MO coefficient is  0.37859304D+02

 Leave Link  801 at Mon Feb  3 15:47:50 2025, MaxMem=  3221225472 cpu:               0.2 elap:               0.0
 (Enter /opt/g16/l906.exe)
 FulOut=F Deriv=T AODrv=T NAtomX=     2
   MMem=       13893  MDisk=           7 MDiskD=           7
  W3Min=       14168 MinDsk=       83143 NBas6D=          46
 NBas2D=        1159    NTT=        1081    LW2=     2040000
    MDV=  3221197636 MDiskM=      971979 NBas2p=         630
 Fully direct method using O(ONN) memory.
 IMap=   1   2   3   4   5   6   7
 JobTyp=1 Pass  1:  I=   1 to   7 NPSUse=  8 ParTrn=T ParDer=T DoDerP=T.
 Spin components of T(2) and E(2):
     alpha-alpha T2 =       0.2210816451D-01 E2=     -0.4064486143D-01
     alpha-beta  T2 =       0.1149321925D+00 E2=     -0.2431601101D+00
     beta-beta   T2 =       0.2210816451D-01 E2=     -0.4064486143D-01
 The integrals were generated   1 times.
 ANorm=    0.1076637600D+01
 E2 =    -0.3244498330D+00 EUMP2 =    -0.75725720579675D+02
 Leave Link  906 at Mon Feb  3 15:47:50 2025, MaxMem=  3221225472 cpu:               0.8 elap:               0.1
 (Enter /opt/g16/l1002.exe)
 Minotr:  Closed shell wavefunction.
          Computing MP2/KS-MP2 derivatives.
          Using Z-Vector for PSCF gradient.
          Skipping F1 and S1 gradient terms here.
          IDoAtm=11
          Direct CPHF calculation.
          Differentiating once with respect to electric field.
                with respect to dipole field.
          Differentiating once with respect to nuclear coordinates.
          Using symmetry in CPHF.
          Requested convergence is 1.0D-10 RMS, and 1.0D-09 maximum.
          NewPWx=F KeepS1=T KeepF1=T KeepIn=T MapXYZ=F SortEE=F KeepMc=T.
 Keep R1 ints in memory in symmetry-blocked form, NReq=2147932.
 FoFCou: FMM=F IPFlag=           0 FMFlag=           0 FMFlg1=           0
         NFxFlg=           0 DoJE=F BraDBF=F KetDBF=F FulRan=T
         wScrn=  0.000000 ICntrl=       600 IOpCl=  0 I1Cent=           0 NGrid=           0
         NMat0=    1 NMatS0=    990 NMatT0=    0 NMatD0=    1 NMtDS0=    0 NMtDT0=    0
 Petite list used in FoFCou.
          MDV=    3221225472 using IRadAn=       5.
          Solving linear equations separately, MaxMat=       0.
          There are     1 degrees of freedom in the 1st order CPHF.  IDoFFX=0 NUNeed=     1.
 LinEq1:  Iter=  0 NonCon=     1 RMS=1.67D-02 Max=1.80D-01 NDo=     1
 AX will form     1 AO Fock derivatives at one time.
 LinEq1:  Iter=  1 NonCon=     1 RMS=5.65D-03 Max=4.95D-02 NDo=     1
 LinEq1:  Iter=  2 NonCon=     1 RMS=3.80D-03 Max=4.08D-02 NDo=     1
 LinEq1:  Iter=  3 NonCon=     1 RMS=4.61D-04 Max=3.23D-03 NDo=     1
 LinEq1:  Iter=  4 NonCon=     1 RMS=7.89D-05 Max=5.76D-04 NDo=     1
 LinEq1:  Iter=  5 NonCon=     1 RMS=9.06D-06 Max=5.63D-05 NDo=     1
 LinEq1:  Iter=  6 NonCon=     1 RMS=8.63D-07 Max=5.97D-06 NDo=     1
 LinEq1:  Iter=  7 NonCon=     1 RMS=9.21D-08 Max=6.38D-07 NDo=     1
 LinEq1:  Iter=  8 NonCon=     1 RMS=7.10D-09 Max=5.20D-08 NDo=     1
 LinEq1:  Iter=  9 NonCon=     1 RMS=6.30D-10 Max=3.99D-09 NDo=     1
 LinEq1:  Iter= 10 NonCon=     0 RMS=5.20D-11 Max=3.47D-10 NDo=     1
 Linear equations converged to 1.000D-10 1.000D-09 after    10 iterations.
 End of Minotr F.D. properties file   721 does not exist.
 End of Minotr F.D. properties file   722 does not exist.
 End of Minotr F.D. properties file   788 does not exist.
 Leave Link 1002 at Mon Feb  3 15:47:50 2025, MaxMem=  3221225472 cpu:               3.3 elap:               0.4
 (Enter /opt/g16/l701.exe)
 ... and contract with generalized density number  2.
 Compute integral first derivatives.
 Leave Link  701 at Mon Feb  3 15:47:50 2025, MaxMem=  3221225472 cpu:               0.9 elap:               0.1
 (Enter /opt/g16/l702.exe)
 L702 exits ... SP integral derivatives will be done elsewhere.
 Leave Link  702 at Mon Feb  3 15:47:50 2025, MaxMem=  3221225472 cpu:               0.2 elap:               0.0
 (Enter /opt/g16/l703.exe)
 Integral derivatives from FoFJK, PRISM(SPDF).
 Compute integral first derivatives, UseDBF=F ICtDFT=           0.
 Calling FoFJK, ICntrl=  10002127 FMM=F ISym2X=1 I1Cent= 0 IOpClX= 0 NMat=1 NMatS=1 NMatT=0.
 FoFJK:  IHMeth= 1 ICntrl=10002127 DoSepK=F KAlg= 0 I1Cent=           0 FoldK=F
 IRaf=         0 NMat=       1 IRICut=       1 DoRegI=T DoRafI=F ISym2E= 1 IDoP0=0 IntGTp=1.
 FoFCou: FMM=F IPFlag=           0 FMFlag=      100000 FMFlg1=         800
         NFxFlg=           0 DoJE=F BraDBF=F KetDBF=F FulRan=T
         wScrn=  0.000000 ICntrl=  10002127 IOpCl=  0 I1Cent=           0 NGrid=           0
         NMat0=    1 NMatS0=      1 NMatT0=    0 NMatD0=    1 NMtDS0=    0 NMtDT0=    0
 Petite list used in FoFCou.
 Leave Link  703 at Mon Feb  3 15:47:51 2025, MaxMem=  3221225472 cpu:               1.3 elap:               0.2
 (Enter /opt/g16/l716.exe)
 Dipole        =-1.49443175D-16 3.71869989D-33-8.88178420D-16
 ***** Axes restored to original set *****
 -------------------------------------------------------------------
 Center     Atomic                   Forces (Hartrees/Bohr)
 Number     Number              X              Y              Z
 -------------------------------------------------------------------
      1        6           0.000000000   -0.000000000   -0.000000019
      2        6          -0.000000000    0.000000000    0.000000019
 -------------------------------------------------------------------
 Cartesian Forces:  Max     0.000000019 RMS     0.000000011
 Leave Link  716 at Mon Feb  3 15:47:51 2025, MaxMem=  3221225472 cpu:               0.2 elap:               0.0
 (Enter /opt/g16/l103.exe)

 GradGradGradGradGradGradGradGradGradGradGradGradGradGradGradGradGradGrad
 Berny optimization.
 Using GEDIIS/GDIIS optimizer.
 Red2BG is reusing G-inverse.
 Internal  Forces:  Max     0.000000019 RMS     0.000000019
 Search for a local minimum.
 Step number   3 out of a maximum of   20
 All quantities printed in internal units (Hartrees-Bohrs-Radians)
 RMS Force = .19122D-07 SwitMx=.10000D-02 MixMth= 2
 Mixed Optimization -- En-DIIS/RFO-DIIS
 Swapping is turned off.
 Update second derivatives using D2CorX and points    3
 DE= -1.10D-07 DEPred=-1.13D-07 R= 9.74D-01
 Trust test= 9.74D-01 RLast= 5.76D-04 DXMaxT set to 3.00D-01
 The second derivative matrix:
                          R1
           R1           0.64737
 ITU=  0  1
     Eigenvalues ---    0.64737
 En-DIIS/RFO-DIIS/Sim-DIIS IScMMF=       -3 using points:     3    2
 RFO step:  Lambda=-5.55111512D-16.
 NNeg= 0 NGDIIS= 2 SimSw=  2.50D-03 Rises=F DC= -1.10D-07 SmlDif=  1.00D-05
 NRisDI= 0 DoIntr=F SqrtH=F CThrHd= 10.0 CDAdj=  3.0
 RMS Error=  0.2953828643D-07 NUsed= 2 OKEnD=F EnDIS=F
 InvSVX:  RCond= 3.93D-07 Info=           0 Equed=N FErr=  8.94D-16 BErr=  2.83D-17
 DidBck=F Rises=F RFO-DIIS coefs:    0.99995    0.00005
 Iteration  1 RMS(Cart)=  0.00000002 RMS(Int)=  0.00000000
 ITry= 1 IFail=0 DXMaxC= 1.44D-08 DCOld= 1.00D+10 DXMaxT= 3.00D-01 DXLimC= 3.00D+00 Rises=F
 ClnCor:  largest displacement from symmetrization is 8.81D-25 for atom     2.
 Variable       Old X    -DE/DX   Delta X   Delta X   Delta X     New X
                                 (Linear)    (Quad)   (Total)
    R1        2.44059   0.00000   0.00000   0.00000   0.00000   2.44059
         Item               Value     Threshold  Converged?
 Maximum Force            0.000000     0.000450     YES
 RMS     Force            0.000000     0.000300     YES
 Maximum Displacement     0.000000     0.001800     YES
 RMS     Displacement     0.000000     0.001200     YES
 Predicted change in Energy=-2.822246D-16
 Optimization completed.
    -- Stationary point found.
                           ----------------------------
                           !   Optimized Parameters   !
                           ! (Angstroms and Degrees)  !
 --------------------------                            --------------------------
 ! Name  Definition              Value          Derivative Info.                !
 --------------------------------------------------------------------------------
 ! R1    R(1,2)                  1.2915         -DE/DX =    0.0                 !
 --------------------------------------------------------------------------------
 Lowest energy point so far.  Saving SCF results.
 Largest change from initial coordinates is atom    1       0.004 Angstoms.
 GradGradGradGradGradGradGradGradGradGradGradGradGradGradGradGradGradGrad

 Leave Link  103 at Mon Feb  3 15:47:51 2025, MaxMem=  3221225472 cpu:               0.2 elap:               0.0
 (Enter /opt/g16/l202.exe)
                          Input orientation:                          
 ---------------------------------------------------------------------
 Center     Atomic      Atomic             Coordinates (Angstroms)
 Number     Number       Type             X           Y           Z
 ---------------------------------------------------------------------
      1          6           0        0.000000    0.000000    0.004247
      2          6           0        0.000000    0.000000    1.295753
 ---------------------------------------------------------------------
 Stoichiometry    C2(2-)
 Framework group  D*H[C*(C.C)]
 Deg. of freedom     1
 Full point group                 D*H     NOp   8
 RotChk:  IX=0 Diff= 0.00D+00
 Largest Abelian subgroup         D2H     NOp   8
 Largest concise Abelian subgroup C2      NOp   2
                         Standard orientation:                         
 ---------------------------------------------------------------------
 Center     Atomic      Atomic             Coordinates (Angstroms)
 Number     Number       Type             X           Y           Z
 ---------------------------------------------------------------------
      1          6           0        0.000000    0.000000    0.645753
      2          6           0        0.000000    0.000000   -0.645753
 ---------------------------------------------------------------------
 Rotational constants (GHZ):           0.0000000          50.4978893          50.4978893
 Leave Link  202 at Mon Feb  3 15:47:51 2025, MaxMem=  3221225472 cpu:               0.0 elap:               0.0
 (Enter /opt/g16/l601.exe)
 Copying SCF densities to generalized density rwf, IOpCl= 0 IROHF=0.

 **********************************************************************

            Population analysis using the SCF Density.

 **********************************************************************

 Orbital symmetries:
       Occupied  (SGG) (SGU) (SGG) (SGU) (SGG) (PIU) (PIU)
       Virtual   (SGU) (SGG) (PIG) (PIG) (PIU) (PIU) (SGG) (SGU)
                 (PIG) (PIG) (SGU) (SGG) (PIU) (PIU) (PIG) (PIG)
                 (SGG) (SGU) (SGU) (DLTG) (DLTG) (PIU) (PIU) (DLTU)
                 (DLTU) (SGG) (PIG) (PIG) (SGU) (PIU) (PIU) (PIG)
                 (PIG) (SGG) (SGU) (SGG) (SGU)
 The electronic state is 1-SGG.
 Alpha  occ. eigenvalues --  -10.76231 -10.76004  -0.49721  -0.03169   0.08226
 Alpha  occ. eigenvalues --    0.11111   0.11111
 Alpha virt. eigenvalues --    0.38609   0.43234   0.43762   0.43762   0.45940
 Alpha virt. eigenvalues --    0.45940   0.51292   0.56698   0.69923   0.69923
 Alpha virt. eigenvalues --    0.95796   1.08784   1.16820   1.16820   1.27941
 Alpha virt. eigenvalues --    1.27941   1.32609   1.40668   1.62752   1.93007
 Alpha virt. eigenvalues --    1.93007   1.99599   1.99599   2.31476   2.31476
 Alpha virt. eigenvalues --    2.56416   2.83771   2.83771   3.12383   3.57883
 Alpha virt. eigenvalues --    3.57883   3.76920   3.76920   4.00374   4.07861
 Alpha virt. eigenvalues --   24.84152  25.96399
          Condensed to atoms (all electrons):
               1          2
     1  C    5.844491   1.155509
     2  C    1.155509   5.844491
 Mulliken charges:
               1
     1  C   -1.000000
     2  C   -1.000000
 Sum of Mulliken charges =  -2.00000
 Mulliken charges with hydrogens summed into heavy atoms:
               1
     1  C   -1.000000
     2  C   -1.000000
 Electronic spatial extent (au):  <R**2>=             81.6887
 Charge=             -2.0000 electrons
 Dipole moment (field-independent basis, Debye):
    X=             -0.0000    Y=              0.0000    Z=             -0.0000  Tot=              0.0000
 Quadrupole moment (field-independent basis, Debye-Ang):
   XX=            -25.7190   YY=            -25.7190   ZZ=            -34.4011
   XY=              0.0000   XZ=              0.0000   YZ=             -0.0000
 Traceless Quadrupole moment (field-independent basis, Debye-Ang):
   XX=              2.8940   YY=              2.8940   ZZ=             -5.7881
   XY=              0.0000   XZ=              0.0000   YZ=             -0.0000
 Octapole moment (field-independent basis, Debye-Ang**2):
  XXX=             -0.0000  YYY=             -0.0000  ZZZ=             -0.0000  XYY=             -0.0000
  XXY=             -0.0000  XXZ=             -0.0000  XZZ=             -0.0000  YZZ=             -0.0000
  YYZ=             -0.0000  XYZ=             -0.0000
 Hexadecapole moment (field-independent basis, Debye-Ang**3):
 XXXX=            -78.6073 YYYY=            -78.6073 ZZZZ=           -171.8667 XXXY=              0.0000
 XXXZ=              0.0000 YYYX=              0.0000 YYYZ=             -0.0000 ZZZX=              0.0000
 ZZZY=             -0.0000 XXYY=            -26.2024 XXZZ=            -39.5974 YYZZ=            -39.5974
 XXYZ=             -0.0000 YYXZ=              0.0000 ZZXY=              0.0000
 N-N= 1.475051800892D+01 E-N=-2.121322267710D+02  KE= 7.532215441917D+01
 Symmetry AG   KE= 3.744079450971D+01
 Symmetry B1G  KE= 7.204464816598D-35
 Symmetry B2G  KE= 7.606635315598D-19
 Symmetry B3G  KE=-1.864054484990D-19
 Symmetry AU   KE= 2.207725768827D-34
 Symmetry B1U  KE= 3.466684529950D+01
 Symmetry B2U  KE= 1.607257304982D+00
 Symmetry B3U  KE= 1.607257304982D+00
 No NMR shielding tensors so no spin-rotation constants.
 Leave Link  601 at Mon Feb  3 15:47:51 2025, MaxMem=  3221225472 cpu:               0.9 elap:               0.1
 (Enter /opt/g16/l9999.exe)
 1\1\GINC-HELIOS\FOpt\RMP2-Full\6-311++G(d,p)\C2(2-)\POHL\03-Feb-2025\0
 \\#P MP2(Full,FullDirect)/6-311++G(d,p) Opt Units=Angstroms\\\-2,1\C,0
 .,0.,0.0042470989\C,0.,0.,1.2957529011\\Version=EM64L-G16RevB.01\State
 =1-SGG\HF=-75.4012707\MP2=-75.7257206\RMSD=4.176e-09\RMSF=1.104e-08\Di
 pole=0.,0.,0.\PG=D*H [C*(C1.C1)]\\@


 I FIND THAT THE THREE TRULY GREAT TIMES FOR THINKING THOUGHTS
 ARE WHEN I AM STANDING IN THE SHOWER, SITTING ON THE JOHN, OR WALKING.

                                    -- COLIN FLETCHER
 Job cpu time:       0 days  0 hours  0 minutes 48.4 seconds.
 Elapsed time:       0 days  0 hours  0 minutes  7.7 seconds.
 File lengths (MBytes):  RWF=      6 Int=      0 D2E=      0 Chk=      1 Scr=      1
 Normal termination of Gaussian 16 at Mon Feb  3 15:47:51 2025.
