 Entering Gaussian System, Link 0=g16
 Initial command:
 /opt/g16/l1.exe "/home/pohl/scratches/g16/Gau-2010564.inp" -scrdir="/home/pohl/scratches/g16/"
 Entering Link 1 = /opt/g16/l1.exe PID=   2010566.
  
 Copyright (c) 1988-2017, Gaussian, Inc.  All Rights Reserved.
  
 This is part of the Gaussian(R) 16 program.  It is based on
 the Gaussian(R) 09 system (copyright 2009, Gaussian, Inc.),
 the Gaussian(R) 03 system (copyright 2003, Gaussian, Inc.),
 the Gaussian(R) 98 system (copyright 1998, Gaussian, Inc.),
 the Gaussian(R) 94 system (copyright 1995, Gaussian, Inc.),
 the Gaussian 92(TM) system (copyright 1992, Gaussian, Inc.),
 the Gaussian 90(TM) system (copyright 1990, Gaussian, Inc.),
 the Gaussian 88(TM) system (copyright 1988, Gaussian, Inc.),
 the Gaussian 86(TM) system (copyright 1986, Carnegie Mellon
 University), and the Gaussian 82(TM) system (copyright 1983,
 Carnegie Mellon University). Gaussian is a federally registered
 trademark of Gaussian, Inc.
  
 This software contains proprietary and confidential information,
 including trade secrets, belonging to Gaussian, Inc.
  
 This software is provided under written license and may be
 used, copied, transmitted, or stored only in accord with that
 written license.
  
 The following legend is applicable only to US Government
 contracts under FAR:
  
                    RESTRICTED RIGHTS LEGEND
  
 Use, reproduction and disclosure by the US Government is
 subject to restrictions as set forth in subparagraphs (a)
 and (c) of the Commercial Computer Software - Restricted
 Rights clause in FAR 52.227-19.
  
 Gaussian, Inc.
 340 Quinnipiac St., Bldg. 40, Wallingford CT 06492
  
  
 ---------------------------------------------------------------
 Warning -- This program may not be used in any manner that
 competes with the business of Gaussian, Inc. or will provide
 assistance to any competitor of Gaussian, Inc.  The licensee
 of this program is prohibited from giving any competitor of
 Gaussian, Inc. access to this program.  By using this program,
 the user acknowledges that Gaussian, Inc. is engaged in the
 business of creating and licensing software in the field of
 computational chemistry and represents and warrants to the
 licensee that it is not a competitor of Gaussian, Inc. and that
 it will not use this program in any manner prohibited above.
 ---------------------------------------------------------------
  

 Cite this work as:
 Gaussian 16, Revision B.01,
 M. J. Frisch, G. W. Trucks, H. B. Schlegel, G. E. Scuseria, 
 M. A. Robb, J. R. Cheeseman, G. Scalmani, V. Barone, 
 G. A. Petersson, H. Nakatsuji, X. Li, M. Caricato, A. V. Marenich, 
 J. Bloino, B. G. Janesko, R. Gomperts, B. Mennucci, H. P. Hratchian, 
 J. V. Ortiz, A. F. Izmaylov, J. L. Sonnenberg, D. Williams-Young, 
 F. Ding, F. Lipparini, F. Egidi, J. Goings, B. Peng, A. Petrone, 
 T. Henderson, D. Ranasinghe, V. G. Zakrzewski, J. Gao, N. Rega, 
 G. Zheng, W. Liang, M. Hada, M. Ehara, K. Toyota, R. Fukuda, 
 J. Hasegawa, M. Ishida, T. Nakajima, Y. Honda, O. Kitao, H. Nakai, 
 T. Vreven, K. Throssell, J. A. Montgomery, Jr., J. E. Peralta, 
 F. Ogliaro, M. J. Bearpark, J. J. Heyd, E. N. Brothers, K. N. Kudin, 
 V. N. Staroverov, T. A. Keith, R. Kobayashi, J. Normand, 
 K. Raghavachari, A. P. Rendell, J. C. Burant, S. S. Iyengar, 
 J. Tomasi, M. Cossi, J. M. Millam, M. Klene, C. Adamo, R. Cammi, 
 J. W. Ochterski, R. L. Martin, K. Morokuma, O. Farkas, 
 J. B. Foresman, and D. J. Fox, Gaussian, Inc., Wallingford CT, 2016.
 
 ******************************************
 Gaussian 16:  EM64L-G16RevB.01 20-Dec-2017
                26-May-2025 
 ******************************************
 %mem=30GB
 %nprocshared=10
 Will use up to   10 processors via shared memory.
 ---------------------
 # CCSD/aug-cc-pVTZ SP
 ---------------------
 1/38=1,172=1/1;
 2/12=2,17=6,18=5,40=1/2;
 3/5=16,6=1,7=10,11=9,25=1,30=1/1,2,3;
 4//1;
 5/5=2,38=5/2;
 8/6=4,9=120000,10=1/1,4;
 9/5=7/13;
 6/7=2,8=2,9=2,10=2/1;
 99/5=1,9=1/99;
 --------------------------------------------------
 Single-point energy of X- + Y- at fixed distance R
 --------------------------------------------------
 Symbolic Z-matrix:
 Charge = -2 Multiplicity = 1
 F                     0.        0.        3.2 
 O                    -1.261     0.        0. 
 B                     0.        0.        0. 
 O                     1.261     0.        0. 
 
                          Input orientation:                          
 ---------------------------------------------------------------------
 Center     Atomic      Atomic             Coordinates (Angstroms)
 Number     Number       Type             X           Y           Z
 ---------------------------------------------------------------------
      1          9           0        0.000000    0.000000    3.200000
      2          8           0       -1.261000    0.000000    0.000000
      3          5           0        0.000000    0.000000    0.000000
      4          8           0        1.261000    0.000000    0.000000
 ---------------------------------------------------------------------
                    Distance matrix (angstroms):
                    1          2          3          4
     1  F    0.000000
     2  O    3.439494   0.000000
     3  B    3.200000   1.261000   0.000000
     4  O    3.439494   2.522000   1.261000   0.000000
 Stoichiometry    BFO2(2-)
 Framework group  C2V[C2(BF),SGV(O2)]
 Deg. of freedom     3
 Full point group                 C2V     NOp   4
 Largest Abelian subgroup         C2V     NOp   4
 Largest concise Abelian subgroup C2      NOp   2
                         Standard orientation:                         
 ---------------------------------------------------------------------
 Center     Atomic      Atomic             Coordinates (Angstroms)
 Number     Number       Type             X           Y           Z
 ---------------------------------------------------------------------
      1          9           0       -0.000000    0.000000    2.240000
      2          8           0        0.000000    1.261000   -0.960000
      3          5           0        0.000000    0.000000   -0.960000
      4          8           0       -0.000000   -1.261000   -0.960000
 ---------------------------------------------------------------------
 Rotational constants (GHZ):           9.9351655           3.7455437           2.7200780
 Standard basis: Aug-CC-pVTZ (5D, 7F)
 There are    85 symmetry adapted cartesian basis functions of A1  symmetry.
 There are    28 symmetry adapted cartesian basis functions of A2  symmetry.
 There are    44 symmetry adapted cartesian basis functions of B1  symmetry.
 There are    63 symmetry adapted cartesian basis functions of B2  symmetry.
 There are    68 symmetry adapted basis functions of A1  symmetry.
 There are    26 symmetry adapted basis functions of A2  symmetry.
 There are    38 symmetry adapted basis functions of B1  symmetry.
 There are    52 symmetry adapted basis functions of B2  symmetry.
   184 basis functions,   288 primitive gaussians,   220 cartesian basis functions
    16 alpha electrons       16 beta electrons
       nuclear repulsion energy        76.5970878204 Hartrees.
 NAtoms=    4 NActive=    4 NUniq=    3 SFac= 1.78D+00 NAtFMM=   60 NAOKFM=F Big=F
 Integral buffers will be    131072 words long.
 Raffenetti 1 integral format.
 Two-electron integral symmetry is turned on.
 One-electron integrals computed using PRISM.
 NBasis=   184 RedAO= T EigKep=  5.32D-05  NBF=    68    26    38    52
 NBsUse=   184 1.00D-06 EigRej= -1.00D+00 NBFU=    68    26    38    52
 ExpMin= 2.10D-02 ExpMax= 1.95D+04 ExpMxC= 6.65D+02 IAcc=3 IRadAn=         5 AccDes= 0.00D+00
 Harris functional with IExCor=  205 and IRadAn=       5 diagonalized for initial guess.
 HarFok:  IExCor=  205 AccDes= 0.00D+00 IRadAn=         5 IDoV= 1 UseB2=F ITyADJ=14
 ICtDFT=  3500011 ScaDFX=  1.000000  1.000000  1.000000  1.000000
 FoFCou: FMM=F IPFlag=           0 FMFlag=      100000 FMFlg1=           0
         NFxFlg=           0 DoJE=T BraDBF=F KetDBF=T FulRan=T
         wScrn=  0.000000 ICntrl=       500 IOpCl=  0 I1Cent=   200000004 NGrid=           0
         NMat0=    1 NMatS0=      1 NMatT0=    0 NMatD0=    1 NMtDS0=    0 NMtDT0=    0
 Petite list used in FoFCou.
 Initial guess orbital symmetries:
       Occupied  (A1) (B2) (A1) (A1) (A1) (B2) (A1) (A1) (B2) (A1)
                 (B1) (B2) (A2) (A1) (B1) (B2)
       Virtual   (A1) (B1) (A1) (B2) (A1) (B1) (A1) (A1) (B1) (B2)
                 (A1) (A2) (B2) (A1) (B1) (B2) (A1) (B1) (A1) (B2)
                 (A1) (B1) (B2) (A2) (A1) (A1) (B2) (A1) (A1) (B1)
                 (A2) (B2) (B1) (A1) (B2) (A2) (B2) (B1) (A1) (B2)
                 (A1) (A2) (A1) (B1) (B2) (A2) (A1) (B1) (B2) (A1)
                 (B1) (B2) (A1) (B2) (B1) (B2) (A2) (A1) (B1) (A1)
                 (B2) (A1) (A2) (A1) (B2) (A1) (A2) (B2) (B2) (B1)
                 (A1) (B1) (A1) (A2) (B2) (A1) (A2) (B2) (B1) (A1)
                 (B1) (A1) (B1) (A1) (B2) (A1) (B1) (A1) (A2) (B2)
                 (A2) (B2) (B2) (A1) (B1) (A2) (A1) (B1) (B2) (A1)
                 (A1) (B1) (B2) (B1) (A2) (A1) (B1) (A1) (B2) (A1)
                 (B1) (A1) (A2) (B2) (B2) (A1) (A2) (B2) (A2) (B2)
                 (B2) (A1) (B1) (B2) (A1) (B1) (A1) (B2) (A2) (B2)
                 (B1) (A1) (B1) (A1) (A2) (B2) (A2) (B2) (A1) (B2)
                 (B1) (A1) (B1) (A1) (A2) (B2) (A1) (A2) (B2) (B2)
                 (B1) (A1) (B1) (B2) (A1) (A2) (B1) (B2) (A1) (A2)
                 (A1) (B1) (B2) (A1) (A1) (A1) (A1) (B2)
 The electronic state of the initial guess is 1-A1.
 Keep R1 ints in memory in symmetry-blocked form, NReq=181483703.
 Requested convergence on RMS density matrix=1.00D-08 within 128 cycles.
 Requested convergence on MAX density matrix=1.00D-06.
 Requested convergence on             energy=1.00D-06.
 No special actions if energy rises.
 SCF Done:  E(RHF) =  -273.929964112     A.U. after   12 cycles
            NFock= 12  Conv=0.28D-08     -V/T= 2.0005
 ExpMin= 2.10D-02 ExpMax= 1.95D+04 ExpMxC= 6.65D+02 IAcc=3 IRadAn=         5 AccDes= 0.00D+00
 HarFok:  IExCor=  205 AccDes= 0.00D+00 IRadAn=         5 IDoV=-2 UseB2=F ITyADJ=14
 ICtDFT= 12500011 ScaDFX=  1.000000  1.000000  1.000000  1.000000
 Range of M.O.s used for correlation:     5   184
 NBasis=   184 NAE=    16 NBE=    16 NFC=     4 NFV=     0
 NROrb=    180 NOA=    12 NOB=    12 NVA=   168 NVB=   168

 **** Warning!!: The largest alpha MO coefficient is  0.39042236D+02

 Semi-Direct transformation.
 ModeAB=           4 MOrb=            12 LenV=    4025580511
 LASXX=      8444399 LTotXX=     8444399 LenRXX=    17045430
 LTotAB=     8601031 MaxLAS=    33374160 LenRXY=           0
 NonZer=    25489829 LenScr=    39014400 LnRSAI=    33374160
 LnScr1=    50823168 LExtra=           0 Total=    140257158
 MaxDsk=          -1 SrtSym=           T ITran=            4
 JobTyp=0 Pass  1:  I=   1 to  12.
 (rs|ai) integrals will be sorted in core.
 Spin components of T(2) and E(2):
     alpha-alpha T2 =       0.3192082093D-01 E2=     -0.1167064921D+00
     alpha-beta  T2 =       0.1627221911D+00 E2=     -0.6466225588D+00
     beta-beta   T2 =       0.3192082093D-01 E2=     -0.1167064921D+00
 ANorm=    0.1107503423D+01
 E2 =    -0.8800355430D+00 EUMP2 =    -0.27480999965500D+03
 Keep R2 and R3 ints in memory in symmetry-blocked form, NReq=181490657.
 CIDS: In Core Option IDoMem=           1.
 Iterations=  50 Convergence= 0.100D-06
 Produce multiple copies of IABC intergrals
 Iteration Nr.   1
 **********************
 DD1Dir will call FoFMem   1 times, MxPair=       156
 NAB=    78 NAA=     0 NBB=     0.
 MP4(R+Q)=  0.14442259D-01
 E3=        0.27509339D-01        EUMP3=      -0.27478249032D+03
 E4(DQ)=   -0.51930276D-02        UMP4(DQ)=   -0.27478768334D+03
 E4(SDQ)=  -0.19114703D-01        UMP4(SDQ)=  -0.27480160502D+03
 DE(Corr)= -0.83713672     E(Corr)=     -274.76710083    
 NORM(A)=   0.10987547D+01
 Iteration Nr.   2
 **********************
 DD1Dir will call FoFMem   1 times, MxPair=       156
 NAB=    78 NAA=     0 NBB=     0.
 DE(Corr)= -0.86569041     E(CORR)=     -274.79565452     Delta=-2.86D-02
 NORM(A)=   0.11069373D+01
 Iteration Nr.   3
 **********************
 DD1Dir will call FoFMem   1 times, MxPair=       156
 NAB=    78 NAA=     0 NBB=     0.
 DE(Corr)= -0.86222867     E(CORR)=     -274.79219279     Delta= 3.46D-03
 NORM(A)=   0.11102451D+01
 Iteration Nr.   4
 **********************
 DD1Dir will call FoFMem   1 times, MxPair=       156
 NAB=    78 NAA=     0 NBB=     0.
 DE(Corr)= -0.86473621     E(CORR)=     -274.79470032     Delta=-2.51D-03
 NORM(A)=   0.11113622D+01
 Iteration Nr.   5
 **********************
 DD1Dir will call FoFMem   1 times, MxPair=       156
 NAB=    78 NAA=     0 NBB=     0.
 DE(Corr)= -0.86504301     E(CORR)=     -274.79500712     Delta=-3.07D-04
 NORM(A)=   0.11117613D+01
 Iteration Nr.   6
 **********************
 DD1Dir will call FoFMem   1 times, MxPair=       156
 NAB=    78 NAA=     0 NBB=     0.
 DE(Corr)= -0.86507437     E(CORR)=     -274.79503849     Delta=-3.14D-05
 NORM(A)=   0.11119244D+01
 Iteration Nr.   7
 **********************
 DD1Dir will call FoFMem   1 times, MxPair=       156
 NAB=    78 NAA=     0 NBB=     0.
 DE(Corr)= -0.86507169     E(CORR)=     -274.79503580     Delta= 2.68D-06
 NORM(A)=   0.11119599D+01
 Iteration Nr.   8
 **********************
 DD1Dir will call FoFMem   1 times, MxPair=       156
 NAB=    78 NAA=     0 NBB=     0.
 DE(Corr)= -0.86509468     E(CORR)=     -274.79505879     Delta=-2.30D-05
 NORM(A)=   0.11119886D+01
 Iteration Nr.   9
 **********************
 DD1Dir will call FoFMem   1 times, MxPair=       156
 NAB=    78 NAA=     0 NBB=     0.
 DE(Corr)= -0.86507496     E(CORR)=     -274.79503907     Delta= 1.97D-05
 NORM(A)=   0.11120071D+01
 Iteration Nr.  10
 **********************
 DD1Dir will call FoFMem   1 times, MxPair=       156
 NAB=    78 NAA=     0 NBB=     0.
 DE(Corr)= -0.86508238     E(CORR)=     -274.79504649     Delta=-7.41D-06
 NORM(A)=   0.11120019D+01
 Iteration Nr.  11
 **********************
 DD1Dir will call FoFMem   1 times, MxPair=       156
 NAB=    78 NAA=     0 NBB=     0.
 DE(Corr)= -0.86507884     E(CORR)=     -274.79504295     Delta= 3.54D-06
 NORM(A)=   0.11120007D+01
 Iteration Nr.  12
 **********************
 DD1Dir will call FoFMem   1 times, MxPair=       156
 NAB=    78 NAA=     0 NBB=     0.
 DE(Corr)= -0.86507722     E(CORR)=     -274.79504133     Delta= 1.62D-06
 NORM(A)=   0.11119968D+01
 Iteration Nr.  13
 **********************
 DD1Dir will call FoFMem   1 times, MxPair=       156
 NAB=    78 NAA=     0 NBB=     0.
 DE(Corr)= -0.86507680     E(CORR)=     -274.79504091     Delta= 4.21D-07
 NORM(A)=   0.11119949D+01
 Iteration Nr.  14
 **********************
 DD1Dir will call FoFMem   1 times, MxPair=       156
 NAB=    78 NAA=     0 NBB=     0.
 DE(Corr)= -0.86507647     E(CORR)=     -274.79504058     Delta= 3.31D-07
 NORM(A)=   0.11119938D+01
 Iteration Nr.  15
 **********************
 DD1Dir will call FoFMem   1 times, MxPair=       156
 NAB=    78 NAA=     0 NBB=     0.
 DE(Corr)= -0.86507619     E(CORR)=     -274.79504030     Delta= 2.82D-07
 NORM(A)=   0.11119931D+01
 Iteration Nr.  16
 **********************
 DD1Dir will call FoFMem   1 times, MxPair=       156
 NAB=    78 NAA=     0 NBB=     0.
 DE(Corr)= -0.86507619     E(CORR)=     -274.79504030     Delta=-2.05D-09
 NORM(A)=   0.11119926D+01
 Wavefunction amplitudes converged. E(Corr)=     -274.79504030    
 Largest amplitude= 3.51D-02
 Discarding MO integrals.

 **********************************************************************

            Population analysis using the SCF Density.

 **********************************************************************

 Orbital symmetries:
       Occupied  (A1) (B2) (A1) (A1) (A1) (A1) (B2) (A1) (B2) (B1)
                 (A1) (B2) (A2) (B1) (A1) (B2)
       Virtual   (A1) (B2) (B1) (A1) (B2) (A1) (A2) (A1) (B2) (A1)
                 (B1) (B1) (A1) (A1) (B2) (B1) (B1) (B2) (A2) (A1)
                 (B2) (A1) (A1) (B1) (B2) (A1) (A1) (A1) (B1) (A2)
                 (B2) (A1) (B1) (A1) (B2) (A2) (B2) (B1) (A1) (A1)
                 (B1) (A1) (B1) (B2) (A2) (A1) (B2) (A2) (B2) (A1)
                 (B2) (A2) (B1) (A1) (B2) (B1) (A1) (B1) (A1) (B2)
                 (B2) (A1) (A2) (B2) (A1) (A2) (A1) (B2) (B2) (B1)
                 (A1) (B1) (A1) (A2) (B2) (A2) (B2) (A1) (B1) (A1)
                 (B1) (A1) (B2) (B1) (A1) (B1) (A1) (A1) (A2) (B2)
                 (A2) (B2) (B2) (B1) (A1) (A1) (B1) (A2) (A1) (B1)
                 (B1) (B2) (B2) (A1) (A2) (A1) (B1) (B2) (A1) (A1)
                 (A2) (B2) (B1) (B2) (A1) (A1) (A2) (B2) (A2) (B2)
                 (B2) (A1) (B1) (A1) (B1) (B2) (A1) (B2) (A2) (B2)
                 (B1) (A1) (B1) (A1) (A2) (B2) (A2) (B2) (A1) (B2)
                 (B1) (A1) (B1) (A1) (A2) (B2) (A1) (A2) (B2) (B2)
                 (B1) (A1) (B1) (B2) (A1) (A2) (B1) (B2) (A1) (A2)
                 (A1) (B1) (B2) (A1) (A1) (A1) (A1) (B2)
 The electronic state is 1-A1.
 Alpha  occ. eigenvalues --  -25.70294 -20.13832 -20.13830  -7.22859  -0.94532
 Alpha  occ. eigenvalues --   -0.90287  -0.89487  -0.22784  -0.20114  -0.15226
 Alpha  occ. eigenvalues --   -0.15032  -0.06184  -0.06071  -0.04993  -0.04915
 Alpha  occ. eigenvalues --   -0.04816
 Alpha virt. eigenvalues --    0.25224   0.26066   0.26519   0.31617   0.41128
 Alpha virt. eigenvalues --    0.42289   0.44602   0.45238   0.45863   0.46546
 Alpha virt. eigenvalues --    0.47506   0.50698   0.50775   0.56866   0.57052
 Alpha virt. eigenvalues --    0.58062   0.60836   0.62062   0.65194   0.65258
 Alpha virt. eigenvalues --    0.68793   0.69769   0.72723   0.75269   0.76458
 Alpha virt. eigenvalues --    0.77672   0.82522   1.00191   1.00983   1.01647
 Alpha virt. eigenvalues --    1.03304   1.03347   1.05432   1.10250   1.11698
 Alpha virt. eigenvalues --    1.12371   1.15618   1.19042   1.20754   1.25128
 Alpha virt. eigenvalues --    1.28108   1.28777   1.30448   1.32469   1.35384
 Alpha virt. eigenvalues --    1.35482   1.37177   1.38986   1.39269   1.40115
 Alpha virt. eigenvalues --    1.44430   1.47173   1.47724   1.52849   1.54171
 Alpha virt. eigenvalues --    1.55036   1.62120   1.67788   1.69359   1.71632
 Alpha virt. eigenvalues --    1.75659   1.83952   1.88541   1.91803   1.94681
 Alpha virt. eigenvalues --    2.35158   2.37071   2.37389   2.37634   2.37987
 Alpha virt. eigenvalues --    2.39171   2.39581   2.40801   2.44711   2.46260
 Alpha virt. eigenvalues --    2.46570   2.47973   2.48644   2.54406   2.61837
 Alpha virt. eigenvalues --    2.66767   2.70258   2.71741   2.75893   2.77126
 Alpha virt. eigenvalues --    2.77593   2.78241   2.82676   2.90149   2.91303
 Alpha virt. eigenvalues --    2.96335   2.97823   3.03915   3.07556   3.07712
 Alpha virt. eigenvalues --    3.38320   3.39080   3.42343   3.43313   3.44875
 Alpha virt. eigenvalues --    3.46287   3.46300   3.46621   3.46625   3.47479
 Alpha virt. eigenvalues --    3.50356   3.52798   3.58626   3.59849   3.69048
 Alpha virt. eigenvalues --    3.73005   3.73358   3.75788   3.82883   3.84736
 Alpha virt. eigenvalues --    4.09988   4.23010   4.24053   5.09314   5.10870
 Alpha virt. eigenvalues --    5.32296   5.65777   5.77039   5.78327   5.81947
 Alpha virt. eigenvalues --    5.84847   5.95551   6.25689   6.92163   6.92457
 Alpha virt. eigenvalues --    7.00999   7.01575   7.10677   7.12257   7.13662
 Alpha virt. eigenvalues --    7.16004   7.24736   7.25482   7.28293   7.33801
 Alpha virt. eigenvalues --    7.39299   7.39856   7.53503   7.54298   7.66655
 Alpha virt. eigenvalues --    7.66925   7.87238   7.94640   7.95554   8.16040
 Alpha virt. eigenvalues --    8.29656   8.33988   9.39868   9.39904   9.40363
 Alpha virt. eigenvalues --    9.40382   9.41195   9.43259   9.43994   9.88206
 Alpha virt. eigenvalues --    9.88775   9.91884   9.94388   9.99015  11.59240
 Alpha virt. eigenvalues --   12.11089  15.14939  17.31064
          Condensed to atoms (all electrons):
               1          2          3          4
     1  F   10.059033  -0.001391  -0.036850  -0.001391
     2  O   -0.001391   8.749628   0.227360  -0.163309
     3  B   -0.036850   0.227360   3.938153   0.227360
     4  O   -0.001391  -0.163309   0.227360   8.749628
 Mulliken charges:
               1
     1  F   -1.019401
     2  O   -0.812288
     3  B    0.643977
     4  O   -0.812288
 Sum of Mulliken charges =  -2.00000
 Mulliken charges with hydrogens summed into heavy atoms:
               1
     1  F   -1.019401
     2  O   -0.812288
     3  B    0.643977
     4  O   -0.812288
 Electronic spatial extent (au):  <R**2>=            412.2196
 Charge=             -2.0000 electrons
 Dipole moment (field-independent basis, Debye):
    X=              0.0000    Y=              0.0000    Z=             -5.3845  Tot=              5.3845
 Quadrupole moment (field-independent basis, Debye-Ang):
   XX=            -25.3105   YY=            -39.9772   ZZ=            -57.0946
   XY=             -0.0000   XZ=             -0.0000   YZ=              0.0000
 Traceless Quadrupole moment (field-independent basis, Debye-Ang):
   XX=             15.4836   YY=              0.8169   ZZ=            -16.3005
   XY=             -0.0000   XZ=             -0.0000   YZ=              0.0000
 Octapole moment (field-independent basis, Debye-Ang**2):
  XXX=              0.0000  YYY=              0.0000  ZZZ=            -46.8762  XYY=              0.0000
  XXY=             -0.0000  XXZ=              1.6814  XZZ=              0.0000  YZZ=              0.0000
  YYZ=             16.9847  XYZ=              0.0000
 Hexadecapole moment (field-independent basis, Debye-Ang**3):
 XXXX=            -28.8748 YYYY=           -184.9490 ZZZZ=           -500.2073 XXXY=             -0.0000
 XXXZ=             -0.0000 YYYX=             -0.0000 YYYZ=              0.0000 ZZZX=             -0.0000
 ZZZY=             -0.0000 XXYY=            -33.4751 XXZZ=            -64.7338 YYZZ=           -103.8981
 XXYZ=              0.0000 YYXZ=             -0.0000 ZZXY=             -0.0000
 N-N= 7.659708782042D+01 E-N=-8.209501577767D+02  KE= 2.738011558410D+02
 Symmetry A1   KE= 1.818452757039D+02
 Symmetry A2   KE= 4.240356501243D+00
 Symmetry B1   KE= 9.152049434389D+00
 Symmetry B2   KE= 7.856347420148D+01
 1\1\GINC-HELIOS\SP\RCCSD-FC\Aug-CC-pVTZ\B1F1O2(2-)\POHL\26-May-2025\0\
 \# CCSD/aug-cc-pVTZ SP\\Single-point energy of X- + Y- at fixed distan
 ce R\\-2,1\F,0,0.,0.,3.2\O,0,-1.261,0.,0.\B,0,0.,0.,0.\O,0,1.261,0.,0.
 \\Version=EM64L-G16RevB.01\State=1-A1\HF=-273.9299641\MP2=-274.8099997
 \MP3=-274.7824903\MP4D=-274.8021256\MP4DQ=-274.7876833\MP4SDQ=-274.801
 605\CCSD=-274.7950403\RMSD=2.826e-09\PG=C02V [C2(B1F1),SGV(O2)]\\@


  DISAPPOINTMENT IS THE NURSE OF WISDOM.               
                              SIR BOYLE ROCHE                 
 Job cpu time:       0 days  0 hours  9 minutes 15.0 seconds.
 Elapsed time:       0 days  0 hours  0 minutes 56.7 seconds.
 File lengths (MBytes):  RWF=   1119 Int=      0 D2E=      0 Chk=      3 Scr=      1
 Normal termination of Gaussian 16 at Mon May 26 13:36:41 2025.
