 Entering Gaussian System, Link 0=g16
 Initial command:
 /opt/g16/l1.exe "/home/pohl/scratches/g16/Gau-2010836.inp" -scrdir="/home/pohl/scratches/g16/"
 Entering Link 1 = /opt/g16/l1.exe PID=   2010838.
  
 Copyright (c) 1988-2017, Gaussian, Inc.  All Rights Reserved.
  
 This is part of the Gaussian(R) 16 program.  It is based on
 the Gaussian(R) 09 system (copyright 2009, Gaussian, Inc.),
 the Gaussian(R) 03 system (copyright 2003, Gaussian, Inc.),
 the Gaussian(R) 98 system (copyright 1998, Gaussian, Inc.),
 the Gaussian(R) 94 system (copyright 1995, Gaussian, Inc.),
 the Gaussian 92(TM) system (copyright 1992, Gaussian, Inc.),
 the Gaussian 90(TM) system (copyright 1990, Gaussian, Inc.),
 the Gaussian 88(TM) system (copyright 1988, Gaussian, Inc.),
 the Gaussian 86(TM) system (copyright 1986, Carnegie Mellon
 University), and the Gaussian 82(TM) system (copyright 1983,
 Carnegie Mellon University). Gaussian is a federally registered
 trademark of Gaussian, Inc.
  
 This software contains proprietary and confidential information,
 including trade secrets, belonging to Gaussian, Inc.
  
 This software is provided under written license and may be
 used, copied, transmitted, or stored only in accord with that
 written license.
  
 The following legend is applicable only to US Government
 contracts under FAR:
  
                    RESTRICTED RIGHTS LEGEND
  
 Use, reproduction and disclosure by the US Government is
 subject to restrictions as set forth in subparagraphs (a)
 and (c) of the Commercial Computer Software - Restricted
 Rights clause in FAR 52.227-19.
  
 Gaussian, Inc.
 340 Quinnipiac St., Bldg. 40, Wallingford CT 06492
  
  
 ---------------------------------------------------------------
 Warning -- This program may not be used in any manner that
 competes with the business of Gaussian, Inc. or will provide
 assistance to any competitor of Gaussian, Inc.  The licensee
 of this program is prohibited from giving any competitor of
 Gaussian, Inc. access to this program.  By using this program,
 the user acknowledges that Gaussian, Inc. is engaged in the
 business of creating and licensing software in the field of
 computational chemistry and represents and warrants to the
 licensee that it is not a competitor of Gaussian, Inc. and that
 it will not use this program in any manner prohibited above.
 ---------------------------------------------------------------
  

 Cite this work as:
 Gaussian 16, Revision B.01,
 M. J. Frisch, G. W. Trucks, H. B. Schlegel, G. E. Scuseria, 
 M. A. Robb, J. R. Cheeseman, G. Scalmani, V. Barone, 
 G. A. Petersson, H. Nakatsuji, X. Li, M. Caricato, A. V. Marenich, 
 J. Bloino, B. G. Janesko, R. Gomperts, B. Mennucci, H. P. Hratchian, 
 J. V. Ortiz, A. F. Izmaylov, J. L. Sonnenberg, D. Williams-Young, 
 F. Ding, F. Lipparini, F. Egidi, J. Goings, B. Peng, A. Petrone, 
 T. Henderson, D. Ranasinghe, V. G. Zakrzewski, J. Gao, N. Rega, 
 G. Zheng, W. Liang, M. Hada, M. Ehara, K. Toyota, R. Fukuda, 
 J. Hasegawa, M. Ishida, T. Nakajima, Y. Honda, O. Kitao, H. Nakai, 
 T. Vreven, K. Throssell, J. A. Montgomery, Jr., J. E. Peralta, 
 F. Ogliaro, M. J. Bearpark, J. J. Heyd, E. N. Brothers, K. N. Kudin, 
 V. N. Staroverov, T. A. Keith, R. Kobayashi, J. Normand, 
 K. Raghavachari, A. P. Rendell, J. C. Burant, S. S. Iyengar, 
 J. Tomasi, M. Cossi, J. M. Millam, M. Klene, C. Adamo, R. Cammi, 
 J. W. Ochterski, R. L. Martin, K. Morokuma, O. Farkas, 
 J. B. Foresman, and D. J. Fox, Gaussian, Inc., Wallingford CT, 2016.
 
 ******************************************
 Gaussian 16:  EM64L-G16RevB.01 20-Dec-2017
                26-May-2025 
 ******************************************
 %mem=30GB
 %nprocshared=10
 Will use up to   10 processors via shared memory.
 ---------------------
 # CCSD/aug-cc-pVTZ SP
 ---------------------
 1/38=1,172=1/1;
 2/12=2,17=6,18=5,40=1/2;
 3/5=16,6=1,7=10,11=9,25=1,30=1/1,2,3;
 4//1;
 5/5=2,38=5/2;
 8/6=4,9=120000,10=1/1,4;
 9/5=7/13;
 6/7=2,8=2,9=2,10=2/1;
 99/5=1,9=1/99;
 --------------------------------------------------
 Single-point energy of X- + Y- at fixed distance R
 --------------------------------------------------
 Symbolic Z-matrix:
 Charge = -2 Multiplicity = 1
 F                     0.        0.        4. 
 O                    -1.261     0.        0. 
 B                     0.        0.        0. 
 O                     1.261     0.        0. 
 
                          Input orientation:                          
 ---------------------------------------------------------------------
 Center     Atomic      Atomic             Coordinates (Angstroms)
 Number     Number       Type             X           Y           Z
 ---------------------------------------------------------------------
      1          9           0        0.000000    0.000000    4.000000
      2          8           0       -1.261000    0.000000    0.000000
      3          5           0        0.000000    0.000000    0.000000
      4          8           0        1.261000    0.000000    0.000000
 ---------------------------------------------------------------------
                    Distance matrix (angstroms):
                    1          2          3          4
     1  F    0.000000
     2  O    4.194058   0.000000
     3  B    4.000000   1.261000   0.000000
     4  O    4.194058   2.522000   1.261000   0.000000
 Stoichiometry    BFO2(2-)
 Framework group  C2V[C2(BF),SGV(O2)]
 Deg. of freedom     3
 Full point group                 C2V     NOp   4
 Largest Abelian subgroup         C2V     NOp   4
 Largest concise Abelian subgroup C2      NOp   2
                         Standard orientation:                         
 ---------------------------------------------------------------------
 Center     Atomic      Atomic             Coordinates (Angstroms)
 Number     Number       Type             X           Y           Z
 ---------------------------------------------------------------------
      1          9           0       -0.000000    0.000000    2.800000
      2          8           0        0.000000    1.261000   -1.200000
      3          5           0        0.000000   -0.000000   -1.200000
      4          8           0       -0.000000   -1.261000   -1.200000
 ---------------------------------------------------------------------
 Rotational constants (GHZ):           9.9351655           2.3971480           1.9311917
 Standard basis: Aug-CC-pVTZ (5D, 7F)
 There are    85 symmetry adapted cartesian basis functions of A1  symmetry.
 There are    28 symmetry adapted cartesian basis functions of A2  symmetry.
 There are    44 symmetry adapted cartesian basis functions of B1  symmetry.
 There are    63 symmetry adapted cartesian basis functions of B2  symmetry.
 There are    68 symmetry adapted basis functions of A1  symmetry.
 There are    26 symmetry adapted basis functions of A2  symmetry.
 There are    38 symmetry adapted basis functions of B1  symmetry.
 There are    52 symmetry adapted basis functions of B2  symmetry.
   184 basis functions,   288 primitive gaussians,   220 cartesian basis functions
    16 alpha electrons       16 beta electrons
       nuclear repulsion energy        71.1228399453 Hartrees.
 NAtoms=    4 NActive=    4 NUniq=    3 SFac= 1.78D+00 NAtFMM=   60 NAOKFM=F Big=F
 Integral buffers will be    131072 words long.
 Raffenetti 1 integral format.
 Two-electron integral symmetry is turned on.
 One-electron integrals computed using PRISM.
 NBasis=   184 RedAO= T EigKep=  5.33D-05  NBF=    68    26    38    52
 NBsUse=   184 1.00D-06 EigRej= -1.00D+00 NBFU=    68    26    38    52
 ExpMin= 2.10D-02 ExpMax= 1.95D+04 ExpMxC= 6.65D+02 IAcc=3 IRadAn=         5 AccDes= 0.00D+00
 Harris functional with IExCor=  205 and IRadAn=       5 diagonalized for initial guess.
 HarFok:  IExCor=  205 AccDes= 0.00D+00 IRadAn=         5 IDoV= 1 UseB2=F ITyADJ=14
 ICtDFT=  3500011 ScaDFX=  1.000000  1.000000  1.000000  1.000000
 FoFCou: FMM=F IPFlag=           0 FMFlag=      100000 FMFlg1=           0
         NFxFlg=           0 DoJE=T BraDBF=F KetDBF=T FulRan=T
         wScrn=  0.000000 ICntrl=       500 IOpCl=  0 I1Cent=   200000004 NGrid=           0
         NMat0=    1 NMatS0=      1 NMatT0=    0 NMatD0=    1 NMtDS0=    0 NMtDT0=    0
 Petite list used in FoFCou.
 Initial guess orbital symmetries:
       Occupied  (A1) (B2) (A1) (A1) (A1) (B2) (A1) (A1) (B2) (A1)
                 (B1) (B2) (A2) (A1) (B1) (B2)
       Virtual   (A1) (A1) (B1) (B2) (A1) (B1) (A1) (A1) (B1) (B2)
                 (A1) (A2) (A1) (B2) (B1) (A1) (B2) (B1) (B2) (A1)
                 (A1) (B1) (B2) (A2) (A1) (A1) (B2) (A1) (B1) (A1)
                 (A2) (B2) (B1) (A1) (B2) (A2) (B2) (A1) (B1) (B2)
                 (A2) (A1) (B2) (A1) (B1) (A2) (A1) (B1) (A1) (B1)
                 (B2) (B2) (A1) (B1) (A1) (B2) (A2) (B2) (B1) (B2)
                 (A1) (A1) (A1) (A2) (B2) (A1) (A2) (B2) (B2) (B1)
                 (A1) (B1) (A1) (A1) (A2) (B2) (A2) (B2) (B1) (A1)
                 (B1) (A1) (B1) (A1) (B2) (A1) (B1) (A1) (A2) (B2)
                 (A2) (B2) (B2) (B1) (A1) (A2) (A1) (B1) (B2) (A1)
                 (A1) (B1) (B2) (A2) (B1) (B1) (A1) (B2) (A1) (A1)
                 (B1) (A1) (A2) (B2) (B2) (A1) (A2) (B2) (A2) (B2)
                 (B2) (A1) (B1) (B2) (A1) (B1) (A1) (B2) (A2) (B2)
                 (B1) (A1) (B1) (A1) (A2) (B2) (A1) (A2) (B2) (B2)
                 (B1) (A1) (B1) (A1) (A2) (B2) (A1) (A2) (B2) (B2)
                 (B1) (A1) (B1) (B2) (A2) (A1) (B1) (B2) (A1) (A2)
                 (A1) (B1) (B2) (A1) (A1) (A1) (A1) (B2)
 The electronic state of the initial guess is 1-A1.
 Keep R1 ints in memory in symmetry-blocked form, NReq=181483703.
 Requested convergence on RMS density matrix=1.00D-08 within 128 cycles.
 Requested convergence on MAX density matrix=1.00D-06.
 Requested convergence on             energy=1.00D-06.
 No special actions if energy rises.
 SCF Done:  E(RHF) =  -273.949517114     A.U. after   11 cycles
            NFock= 11  Conv=0.71D-08     -V/T= 2.0005
 ExpMin= 2.10D-02 ExpMax= 1.95D+04 ExpMxC= 6.65D+02 IAcc=3 IRadAn=         5 AccDes= 0.00D+00
 HarFok:  IExCor=  205 AccDes= 0.00D+00 IRadAn=         5 IDoV=-2 UseB2=F ITyADJ=14
 ICtDFT= 12500011 ScaDFX=  1.000000  1.000000  1.000000  1.000000
 Range of M.O.s used for correlation:     5   184
 NBasis=   184 NAE=    16 NBE=    16 NFC=     4 NFV=     0
 NROrb=    180 NOA=    12 NOB=    12 NVA=   168 NVB=   168

 **** Warning!!: The largest alpha MO coefficient is  0.40571711D+02

 Semi-Direct transformation.
 ModeAB=           4 MOrb=            12 LenV=    4025584386
 LASXX=      8444399 LTotXX=     8444399 LenRXX=    17045430
 LTotAB=     8601031 MaxLAS=    32816880 LenRXY=           0
 NonZer=    25489829 LenScr=    39014400 LnRSAI=    32816880
 LnScr1=    50003968 LExtra=           0 Total=    138880678
 MaxDsk=          -1 SrtSym=           T ITran=            4
 JobTyp=0 Pass  1:  I=   1 to  12.
 (rs|ai) integrals will be sorted in core.
 Spin components of T(2) and E(2):
     alpha-alpha T2 =       0.3179910209D-01 E2=     -0.1164638754D+00
     alpha-beta  T2 =       0.1624196626D+00 E2=     -0.6460775720D+00
     beta-beta   T2 =       0.3179910209D-01 E2=     -0.1164638754D+00
 ANorm=    0.1107256911D+01
 E2 =    -0.8790053227D+00 EUMP2 =    -0.27482852243629D+03
 Keep R2 and R3 ints in memory in symmetry-blocked form, NReq=181490657.
 CIDS: In Core Option IDoMem=           1.
 Iterations=  50 Convergence= 0.100D-06
 Produce multiple copies of IABC intergrals
 Iteration Nr.   1
 **********************
 DD1Dir will call FoFMem   1 times, MxPair=       156
 NAB=    78 NAA=     0 NBB=     0.
 MP4(R+Q)=  0.14310127D-01
 E3=        0.27384841D-01        EUMP3=      -0.27480113759D+03
 E4(DQ)=   -0.52754045D-02        UMP4(DQ)=   -0.27480641300D+03
 E4(SDQ)=  -0.18956834D-01        UMP4(SDQ)=  -0.27482009443D+03
 DE(Corr)= -0.83638435     E(Corr)=     -274.78590147    
 NORM(A)=   0.10983893D+01
 Iteration Nr.   2
 **********************
 DD1Dir will call FoFMem   1 times, MxPair=       156
 NAB=    78 NAA=     0 NBB=     0.
 DE(Corr)= -0.86464933     E(CORR)=     -274.81416644     Delta=-2.83D-02
 NORM(A)=   0.11065307D+01
 Iteration Nr.   3
 **********************
 DD1Dir will call FoFMem   1 times, MxPair=       156
 NAB=    78 NAA=     0 NBB=     0.
 DE(Corr)= -0.86133047     E(CORR)=     -274.81084759     Delta= 3.32D-03
 NORM(A)=   0.11096420D+01
 Iteration Nr.   4
 **********************
 DD1Dir will call FoFMem   1 times, MxPair=       156
 NAB=    78 NAA=     0 NBB=     0.
 DE(Corr)= -0.86377088     E(CORR)=     -274.81328800     Delta=-2.44D-03
 NORM(A)=   0.11107162D+01
 Iteration Nr.   5
 **********************
 DD1Dir will call FoFMem   1 times, MxPair=       156
 NAB=    78 NAA=     0 NBB=     0.
 DE(Corr)= -0.86405792     E(CORR)=     -274.81357503     Delta=-2.87D-04
 NORM(A)=   0.11110145D+01
 Iteration Nr.   6
 **********************
 DD1Dir will call FoFMem   1 times, MxPair=       156
 NAB=    78 NAA=     0 NBB=     0.
 DE(Corr)= -0.86407921     E(CORR)=     -274.81359633     Delta=-2.13D-05
 NORM(A)=   0.11111246D+01
 Iteration Nr.   7
 **********************
 DD1Dir will call FoFMem   1 times, MxPair=       156
 NAB=    78 NAA=     0 NBB=     0.
 DE(Corr)= -0.86407649     E(CORR)=     -274.81359360     Delta= 2.73D-06
 NORM(A)=   0.11111402D+01
 Iteration Nr.   8
 **********************
 DD1Dir will call FoFMem   1 times, MxPair=       156
 NAB=    78 NAA=     0 NBB=     0.
 DE(Corr)= -0.86409140     E(CORR)=     -274.81360851     Delta=-1.49D-05
 NORM(A)=   0.11111527D+01
 Iteration Nr.   9
 **********************
 DD1Dir will call FoFMem   1 times, MxPair=       156
 NAB=    78 NAA=     0 NBB=     0.
 DE(Corr)= -0.86407913     E(CORR)=     -274.81359625     Delta= 1.23D-05
 NORM(A)=   0.11111604D+01
 Iteration Nr.  10
 **********************
 DD1Dir will call FoFMem   1 times, MxPair=       156
 NAB=    78 NAA=     0 NBB=     0.
 DE(Corr)= -0.86408285     E(CORR)=     -274.81359996     Delta=-3.72D-06
 NORM(A)=   0.11111579D+01
 Iteration Nr.  11
 **********************
 DD1Dir will call FoFMem   1 times, MxPair=       156
 NAB=    78 NAA=     0 NBB=     0.
 DE(Corr)= -0.86408108     E(CORR)=     -274.81359820     Delta= 1.77D-06
 NORM(A)=   0.11111568D+01
 Iteration Nr.  12
 **********************
 DD1Dir will call FoFMem   1 times, MxPair=       156
 NAB=    78 NAA=     0 NBB=     0.
 DE(Corr)= -0.86408017     E(CORR)=     -274.81359729     Delta= 9.09D-07
 NORM(A)=   0.11111549D+01
 Iteration Nr.  13
 **********************
 DD1Dir will call FoFMem   1 times, MxPair=       156
 NAB=    78 NAA=     0 NBB=     0.
 DE(Corr)= -0.86407992     E(CORR)=     -274.81359703     Delta= 2.55D-07
 NORM(A)=   0.11111538D+01
 Iteration Nr.  14
 **********************
 DD1Dir will call FoFMem   1 times, MxPair=       156
 NAB=    78 NAA=     0 NBB=     0.
 DE(Corr)= -0.86407973     E(CORR)=     -274.81359684     Delta= 1.91D-07
 NORM(A)=   0.11111532D+01
 Iteration Nr.  15
 **********************
 DD1Dir will call FoFMem   1 times, MxPair=       156
 NAB=    78 NAA=     0 NBB=     0.
 DE(Corr)= -0.86407961     E(CORR)=     -274.81359673     Delta= 1.15D-07
 NORM(A)=   0.11111529D+01
 Iteration Nr.  16
 **********************
 DD1Dir will call FoFMem   1 times, MxPair=       156
 NAB=    78 NAA=     0 NBB=     0.
 DE(Corr)= -0.86407961     E(CORR)=     -274.81359673     Delta= 1.68D-09
 NORM(A)=   0.11111527D+01
 Wavefunction amplitudes converged. E(Corr)=     -274.81359673    
 Largest amplitude= 3.62D-02
 Discarding MO integrals.

 **********************************************************************

            Population analysis using the SCF Density.

 **********************************************************************

 Orbital symmetries:
       Occupied  (A1) (B2) (A1) (A1) (A1) (A1) (B2) (A1) (B2) (B1)
                 (A1) (A2) (B2) (B1) (B2) (A1)
       Virtual   (A1) (B2) (B1) (A1) (B2) (A1) (A2) (A1) (B2) (B1)
                 (A1) (B1) (A1) (B2) (B1) (A1) (B1) (A1) (B2) (A2)
                 (B2) (A1) (A1) (B1) (A1) (B2) (A1) (B1) (A1) (A2)
                 (B2) (A1) (B1) (A1) (B2) (A2) (B2) (B1) (A1) (A1)
                 (A1) (B1) (B1) (B2) (A1) (B2) (A2) (A1) (B2) (A2)
                 (B1) (B2) (A2) (A1) (B2) (B1) (A1) (B1) (B2) (A1)
                 (B2) (A1) (A2) (A1) (B2) (A1) (A2) (B2) (B2) (B1)
                 (A1) (B1) (A1) (A1) (A2) (B2) (A2) (B2) (B1) (A1)
                 (B1) (A1) (B2) (B1) (A1) (B1) (A1) (A1) (A2) (B2)
                 (A2) (B2) (B2) (B1) (A1) (B1) (A1) (A2) (A1) (B1)
                 (B2) (A1) (B1) (B2) (A2) (A1) (B1) (B2) (A1) (A1)
                 (A2) (B2) (B1) (B2) (A1) (A1) (A2) (B2) (A2) (B2)
                 (B2) (A1) (B1) (A1) (B1) (B2) (A1) (B2) (A2) (B2)
                 (B1) (A1) (B1) (A1) (A2) (B2) (A2) (B2) (A1) (B2)
                 (B1) (A1) (B1) (A1) (A2) (B2) (A1) (A2) (B2) (B2)
                 (B1) (A1) (B1) (B2) (A2) (A1) (B1) (B2) (A1) (A2)
                 (A1) (B1) (B2) (A1) (A1) (A1) (A1) (B2)
 The electronic state is 1-A1.
 Alpha  occ. eigenvalues --  -25.71936 -20.16305 -20.16303  -7.25276  -0.96134
 Alpha  occ. eigenvalues --   -0.92784  -0.91964  -0.25202  -0.22488  -0.17695
 Alpha  occ. eigenvalues --   -0.17532  -0.08505  -0.08456  -0.06624  -0.06619
 Alpha  occ. eigenvalues --   -0.06602
 Alpha virt. eigenvalues --    0.24489   0.25553   0.25866   0.31026   0.40326
 Alpha virt. eigenvalues --    0.41289   0.43415   0.44374   0.44467   0.46385
 Alpha virt. eigenvalues --    0.46419   0.48750   0.49715   0.55738   0.55815
 Alpha virt. eigenvalues --    0.56616   0.58365   0.59409   0.59501   0.63581
 Alpha virt. eigenvalues --    0.66677   0.68813   0.70263   0.73058   0.73526
 Alpha virt. eigenvalues --    0.74315   0.78311   0.98705   0.98946   0.99318
 Alpha virt. eigenvalues --    0.99852   1.00498   1.01537   1.04251   1.09722
 Alpha virt. eigenvalues --    1.10572   1.12288   1.17064   1.17562   1.22793
 Alpha virt. eigenvalues --    1.25889   1.25963   1.28047   1.30132   1.32458
 Alpha virt. eigenvalues --    1.33468   1.33746   1.34847   1.36496   1.36728
 Alpha virt. eigenvalues --    1.37667   1.38836   1.42785   1.43176   1.49060
 Alpha virt. eigenvalues --    1.51971   1.57823   1.65258   1.66090   1.67664
 Alpha virt. eigenvalues --    1.72196   1.72200   1.86338   1.86706   1.87760
 Alpha virt. eigenvalues --    2.31673   2.32510   2.33001   2.35134   2.35272
 Alpha virt. eigenvalues --    2.35672   2.37151   2.37827   2.38994   2.42295
 Alpha virt. eigenvalues --    2.42868   2.44037   2.44079   2.48956   2.52268
 Alpha virt. eigenvalues --    2.64367   2.65297   2.69279   2.73327   2.73747
 Alpha virt. eigenvalues --    2.74679   2.75153   2.76811   2.87956   2.88780
 Alpha virt. eigenvalues --    2.93908   2.94222   3.00947   3.05069   3.05174
 Alpha virt. eigenvalues --    3.36793   3.36976   3.39899   3.40442   3.41522
 Alpha virt. eigenvalues --    3.42952   3.44141   3.44573   3.44576   3.44725
 Alpha virt. eigenvalues --    3.44787   3.45015   3.46813   3.49985   3.59014
 Alpha virt. eigenvalues --    3.70407   3.70554   3.73229   3.80191   3.80307
 Alpha virt. eigenvalues --    4.06686   4.20663   4.21159   5.06825   5.07788
 Alpha virt. eigenvalues --    5.29765   5.62902   5.74593   5.75398   5.79664
 Alpha virt. eigenvalues --    5.80386   5.82282   6.23113   6.89675   6.89697
 Alpha virt. eigenvalues --    6.97940   6.98326   7.08041   7.08128   7.10930
 Alpha virt. eigenvalues --    7.11388   7.22351   7.22806   7.23033   7.30961
 Alpha virt. eigenvalues --    7.36894   7.37135   7.50974   7.51594   7.64175
 Alpha virt. eigenvalues --    7.64267   7.84668   7.92219   7.92387   8.13534
 Alpha virt. eigenvalues --    8.27167   8.29718   9.38220   9.38222   9.38292
 Alpha virt. eigenvalues --    9.38315   9.38400   9.38783   9.38903   9.86021
 Alpha virt. eigenvalues --    9.86171   9.86965   9.88364   9.90574  11.41388
 Alpha virt. eigenvalues --   12.03909  15.10573  17.27914
          Condensed to atoms (all electrons):
               1          2          3          4
     1  F   10.019233  -0.000665  -0.010393  -0.000665
     2  O   -0.000665   8.702916   0.232007  -0.148499
     3  B   -0.010393   0.232007   3.967351   0.232007
     4  O   -0.000665  -0.148499   0.232007   8.702916
 Mulliken charges:
               1
     1  F   -1.007510
     2  O   -0.785759
     3  B    0.579028
     4  O   -0.785759
 Sum of Mulliken charges =  -2.00000
 Mulliken charges with hydrogens summed into heavy atoms:
               1
     1  F   -1.007510
     2  O   -0.785759
     3  B    0.579028
     4  O   -0.785759
 Electronic spatial extent (au):  <R**2>=            553.0740
 Charge=             -2.0000 electrons
 Dipole moment (field-independent basis, Debye):
    X=              0.0000    Y=             -0.0000    Z=             -7.1761  Tot=              7.1761
 Quadrupole moment (field-independent basis, Debye-Ang):
   XX=            -25.1874   YY=            -39.5520   ZZ=            -72.7982
   XY=             -0.0000   XZ=             -0.0000   YZ=              0.0000
 Traceless Quadrupole moment (field-independent basis, Debye-Ang):
   XX=             20.6585   YY=              6.2939   ZZ=            -26.9523
   XY=             -0.0000   XZ=             -0.0000   YZ=              0.0000
 Octapole moment (field-independent basis, Debye-Ang**2):
  XXX=              0.0000  YYY=             -0.0000  ZZZ=            -94.6419  XYY=              0.0000
  XXY=             -0.0000  XXZ=              1.7660  XZZ=              0.0000  YZZ=             -0.0000
  YYZ=             19.8583  XYZ=              0.0000
 Hexadecapole moment (field-independent basis, Debye-Ang**3):
 XXXX=            -28.2392 YYYY=           -181.8905 ZZZZ=           -863.4361 XXXY=             -0.0000
 XXXZ=             -0.0000 YYYX=             -0.0000 YYYZ=              0.0000 ZZZX=             -0.0000
 ZZZY=              0.0000 XXYY=            -32.9324 XXZZ=            -93.7562 YYZZ=           -139.6601
 XXYZ=              0.0000 YYXZ=             -0.0000 ZZXY=             -0.0000
 N-N= 7.112283994529D+01 E-N=-8.093422748637D+02  KE= 2.738060824156D+02
 Symmetry A1   KE= 1.818264985685D+02
 Symmetry A2   KE= 4.253567880336D+00
 Symmetry B1   KE= 9.166380365894D+00
 Symmetry B2   KE= 7.855963560085D+01
 1\1\GINC-HELIOS\SP\RCCSD-FC\Aug-CC-pVTZ\B1F1O2(2-)\POHL\26-May-2025\0\
 \# CCSD/aug-cc-pVTZ SP\\Single-point energy of X- + Y- at fixed distan
 ce R\\-2,1\F,0,0.,0.,4.\O,0,-1.261,0.,0.\B,0,0.,0.,0.\O,0,1.261,0.,0.\
 \Version=EM64L-G16RevB.01\State=1-A1\HF=-273.9495171\MP2=-274.8285224\
 MP3=-274.8011376\MP4D=-274.8207231\MP4DQ=-274.806413\MP4SDQ=-274.82009
 44\CCSD=-274.8135967\RMSD=7.122e-09\PG=C02V [C2(B1F1),SGV(O2)]\\@


 THE TRULY SUCCESSFUL PERFORMANCE OF RESEARCHES IN
 INORGANIC CHEMISTRY IS POSSIBLE ONLY TO ONE WHO IS NOT
 ONLY A THEORETICAL CHEMIST, BUT ALSO AN ACCOMPLISHED
 ANALYST AND, MOREOVER, NOT MERELY A PRACTICALLY TRAINED,
 MECHANICAL WORKER, BUT A THINKING CREATIVE ARTIST.
   --  CLEMENS WINKLER, BER. 33, 1697(1900)
 Job cpu time:       0 days  0 hours  9 minutes  3.4 seconds.
 Elapsed time:       0 days  0 hours  0 minutes 54.5 seconds.
 File lengths (MBytes):  RWF=   1108 Int=      0 D2E=      0 Chk=      3 Scr=      1
 Normal termination of Gaussian 16 at Mon May 26 13:38:23 2025.
