 Entering Gaussian System, Link 0=g16
 Initial command:
 /opt/g16/l1.exe "/home/pohl/scratches/g16/Gau-2010975.inp" -scrdir="/home/pohl/scratches/g16/"
 Entering Link 1 = /opt/g16/l1.exe PID=   2010977.
  
 Copyright (c) 1988-2017, Gaussian, Inc.  All Rights Reserved.
  
 This is part of the Gaussian(R) 16 program.  It is based on
 the Gaussian(R) 09 system (copyright 2009, Gaussian, Inc.),
 the Gaussian(R) 03 system (copyright 2003, Gaussian, Inc.),
 the Gaussian(R) 98 system (copyright 1998, Gaussian, Inc.),
 the Gaussian(R) 94 system (copyright 1995, Gaussian, Inc.),
 the Gaussian 92(TM) system (copyright 1992, Gaussian, Inc.),
 the Gaussian 90(TM) system (copyright 1990, Gaussian, Inc.),
 the Gaussian 88(TM) system (copyright 1988, Gaussian, Inc.),
 the Gaussian 86(TM) system (copyright 1986, Carnegie Mellon
 University), and the Gaussian 82(TM) system (copyright 1983,
 Carnegie Mellon University). Gaussian is a federally registered
 trademark of Gaussian, Inc.
  
 This software contains proprietary and confidential information,
 including trade secrets, belonging to Gaussian, Inc.
  
 This software is provided under written license and may be
 used, copied, transmitted, or stored only in accord with that
 written license.
  
 The following legend is applicable only to US Government
 contracts under FAR:
  
                    RESTRICTED RIGHTS LEGEND
  
 Use, reproduction and disclosure by the US Government is
 subject to restrictions as set forth in subparagraphs (a)
 and (c) of the Commercial Computer Software - Restricted
 Rights clause in FAR 52.227-19.
  
 Gaussian, Inc.
 340 Quinnipiac St., Bldg. 40, Wallingford CT 06492
  
  
 ---------------------------------------------------------------
 Warning -- This program may not be used in any manner that
 competes with the business of Gaussian, Inc. or will provide
 assistance to any competitor of Gaussian, Inc.  The licensee
 of this program is prohibited from giving any competitor of
 Gaussian, Inc. access to this program.  By using this program,
 the user acknowledges that Gaussian, Inc. is engaged in the
 business of creating and licensing software in the field of
 computational chemistry and represents and warrants to the
 licensee that it is not a competitor of Gaussian, Inc. and that
 it will not use this program in any manner prohibited above.
 ---------------------------------------------------------------
  

 Cite this work as:
 Gaussian 16, Revision B.01,
 M. J. Frisch, G. W. Trucks, H. B. Schlegel, G. E. Scuseria, 
 M. A. Robb, J. R. Cheeseman, G. Scalmani, V. Barone, 
 G. A. Petersson, H. Nakatsuji, X. Li, M. Caricato, A. V. Marenich, 
 J. Bloino, B. G. Janesko, R. Gomperts, B. Mennucci, H. P. Hratchian, 
 J. V. Ortiz, A. F. Izmaylov, J. L. Sonnenberg, D. Williams-Young, 
 F. Ding, F. Lipparini, F. Egidi, J. Goings, B. Peng, A. Petrone, 
 T. Henderson, D. Ranasinghe, V. G. Zakrzewski, J. Gao, N. Rega, 
 G. Zheng, W. Liang, M. Hada, M. Ehara, K. Toyota, R. Fukuda, 
 J. Hasegawa, M. Ishida, T. Nakajima, Y. Honda, O. Kitao, H. Nakai, 
 T. Vreven, K. Throssell, J. A. Montgomery, Jr., J. E. Peralta, 
 F. Ogliaro, M. J. Bearpark, J. J. Heyd, E. N. Brothers, K. N. Kudin, 
 V. N. Staroverov, T. A. Keith, R. Kobayashi, J. Normand, 
 K. Raghavachari, A. P. Rendell, J. C. Burant, S. S. Iyengar, 
 J. Tomasi, M. Cossi, J. M. Millam, M. Klene, C. Adamo, R. Cammi, 
 J. W. Ochterski, R. L. Martin, K. Morokuma, O. Farkas, 
 J. B. Foresman, and D. J. Fox, Gaussian, Inc., Wallingford CT, 2016.
 
 ******************************************
 Gaussian 16:  EM64L-G16RevB.01 20-Dec-2017
                26-May-2025 
 ******************************************
 %mem=30GB
 %nprocshared=10
 Will use up to   10 processors via shared memory.
 ---------------------
 # CCSD/aug-cc-pVTZ SP
 ---------------------
 1/38=1,172=1/1;
 2/12=2,17=6,18=5,40=1/2;
 3/5=16,6=1,7=10,11=9,25=1,30=1/1,2,3;
 4//1;
 5/5=2,38=5/2;
 8/6=4,9=120000,10=1/1,4;
 9/5=7/13;
 6/7=2,8=2,9=2,10=2/1;
 99/5=1,9=1/99;
 --------------------------------------------------
 Single-point energy of X- + Y- at fixed distance R
 --------------------------------------------------
 Symbolic Z-matrix:
 Charge = -2 Multiplicity = 1
 F                     0.        0.        4.2 
 O                    -1.261     0.        0. 
 B                     0.        0.        0. 
 O                     1.261     0.        0. 
 
                          Input orientation:                          
 ---------------------------------------------------------------------
 Center     Atomic      Atomic             Coordinates (Angstroms)
 Number     Number       Type             X           Y           Z
 ---------------------------------------------------------------------
      1          9           0        0.000000    0.000000    4.200000
      2          8           0       -1.261000    0.000000    0.000000
      3          5           0        0.000000    0.000000    0.000000
      4          8           0        1.261000    0.000000    0.000000
 ---------------------------------------------------------------------
                    Distance matrix (angstroms):
                    1          2          3          4
     1  F    0.000000
     2  O    4.385216   0.000000
     3  B    4.200000   1.261000   0.000000
     4  O    4.385216   2.522000   1.261000   0.000000
 Stoichiometry    BFO2(2-)
 Framework group  C2V[C2(BF),SGV(O2)]
 Deg. of freedom     3
 Full point group                 C2V     NOp   4
 Largest Abelian subgroup         C2V     NOp   4
 Largest concise Abelian subgroup C2      NOp   2
                         Standard orientation:                         
 ---------------------------------------------------------------------
 Center     Atomic      Atomic             Coordinates (Angstroms)
 Number     Number       Type             X           Y           Z
 ---------------------------------------------------------------------
      1          9           0       -0.000000    0.000000    2.940000
      2          8           0        0.000000    1.261000   -1.260000
      3          5           0        0.000000   -0.000000   -1.260000
      4          8           0       -0.000000   -1.261000   -1.260000
 ---------------------------------------------------------------------
 Rotational constants (GHZ):           9.9351655           2.1742839           1.7838854
 Standard basis: Aug-CC-pVTZ (5D, 7F)
 There are    85 symmetry adapted cartesian basis functions of A1  symmetry.
 There are    28 symmetry adapted cartesian basis functions of A2  symmetry.
 There are    44 symmetry adapted cartesian basis functions of B1  symmetry.
 There are    63 symmetry adapted cartesian basis functions of B2  symmetry.
 There are    68 symmetry adapted basis functions of A1  symmetry.
 There are    26 symmetry adapted basis functions of A2  symmetry.
 There are    38 symmetry adapted basis functions of B1  symmetry.
 There are    52 symmetry adapted basis functions of B2  symmetry.
   184 basis functions,   288 primitive gaussians,   220 cartesian basis functions
    16 alpha electrons       16 beta electrons
       nuclear repulsion energy        70.0473406082 Hartrees.
 NAtoms=    4 NActive=    4 NUniq=    3 SFac= 1.78D+00 NAtFMM=   60 NAOKFM=F Big=F
 Integral buffers will be    131072 words long.
 Raffenetti 1 integral format.
 Two-electron integral symmetry is turned on.
 One-electron integrals computed using PRISM.
 NBasis=   184 RedAO= T EigKep=  5.34D-05  NBF=    68    26    38    52
 NBsUse=   184 1.00D-06 EigRej= -1.00D+00 NBFU=    68    26    38    52
 ExpMin= 2.10D-02 ExpMax= 1.95D+04 ExpMxC= 6.65D+02 IAcc=3 IRadAn=         5 AccDes= 0.00D+00
 Harris functional with IExCor=  205 and IRadAn=       5 diagonalized for initial guess.
 HarFok:  IExCor=  205 AccDes= 0.00D+00 IRadAn=         5 IDoV= 1 UseB2=F ITyADJ=14
 ICtDFT=  3500011 ScaDFX=  1.000000  1.000000  1.000000  1.000000
 FoFCou: FMM=F IPFlag=           0 FMFlag=      100000 FMFlg1=           0
         NFxFlg=           0 DoJE=T BraDBF=F KetDBF=T FulRan=T
         wScrn=  0.000000 ICntrl=       500 IOpCl=  0 I1Cent=   200000004 NGrid=           0
         NMat0=    1 NMatS0=      1 NMatT0=    0 NMatD0=    1 NMtDS0=    0 NMtDT0=    0
 Petite list used in FoFCou.
 Initial guess orbital symmetries:
       Occupied  (A1) (B2) (A1) (A1) (A1) (B2) (A1) (A1) (B2) (A1)
                 (B1) (B2) (A2) (A1) (B1) (B2)
       Virtual   (A1) (A1) (B1) (B2) (A1) (B1) (A1) (A1) (B1) (B2)
                 (A1) (A2) (A1) (B2) (B1) (A1) (B1) (B2) (B2) (A1)
                 (A1) (B1) (B2) (A2) (A1) (A1) (B2) (A1) (B1) (A2)
                 (B2) (A1) (B1) (A1) (B2) (A2) (B2) (A1) (B1) (B2)
                 (A2) (A1) (B2) (A1) (B1) (A1) (A2) (B1) (A1) (B1)
                 (B2) (A1) (B2) (B1) (B2) (A1) (A2) (B2) (B1) (B2)
                 (A1) (A1) (A1) (A2) (B2) (A1) (A2) (B2) (B2) (B1)
                 (A1) (B1) (A1) (A1) (A2) (B2) (A2) (B2) (B1) (A1)
                 (B1) (A1) (B1) (A1) (B2) (A1) (B1) (A1) (A2) (B2)
                 (B2) (A2) (B2) (B1) (A1) (A2) (A1) (B1) (B2) (A1)
                 (A1) (B1) (B2) (A2) (B1) (A1) (B1) (B2) (A1) (A1)
                 (B1) (A1) (A2) (B2) (B2) (A1) (A2) (B2) (A2) (B2)
                 (B2) (A1) (B1) (B2) (A1) (B1) (A1) (B2) (A2) (B2)
                 (B1) (A1) (B1) (A1) (A2) (B2) (A1) (A2) (B2) (B2)
                 (B1) (A1) (B1) (A1) (A2) (B2) (A1) (A2) (B2) (B2)
                 (B1) (A1) (B1) (B2) (A2) (A1) (B1) (B2) (A1) (A2)
                 (A1) (B1) (B2) (A1) (A1) (A1) (A1) (B2)
 The electronic state of the initial guess is 1-A1.
 Keep R1 ints in memory in symmetry-blocked form, NReq=181483703.
 Requested convergence on RMS density matrix=1.00D-08 within 128 cycles.
 Requested convergence on MAX density matrix=1.00D-06.
 Requested convergence on             energy=1.00D-06.
 No special actions if energy rises.
 SCF Done:  E(RHF) =  -273.953765227     A.U. after   11 cycles
            NFock= 11  Conv=0.66D-08     -V/T= 2.0005
 ExpMin= 2.10D-02 ExpMax= 1.95D+04 ExpMxC= 6.65D+02 IAcc=3 IRadAn=         5 AccDes= 0.00D+00
 HarFok:  IExCor=  205 AccDes= 0.00D+00 IRadAn=         5 IDoV=-2 UseB2=F ITyADJ=14
 ICtDFT= 12500011 ScaDFX=  1.000000  1.000000  1.000000  1.000000
 Range of M.O.s used for correlation:     5   184
 NBasis=   184 NAE=    16 NBE=    16 NFC=     4 NFV=     0
 NROrb=    180 NOA=    12 NOB=    12 NVA=   168 NVB=   168

 **** Warning!!: The largest alpha MO coefficient is  0.41027351D+02

 Semi-Direct transformation.
 ModeAB=           4 MOrb=            12 LenV=    4025586161
 LASXX=      8444399 LTotXX=     8444399 LenRXX=    17045430
 LTotAB=     8601031 MaxLAS=    32112720 LenRXY=           0
 NonZer=    25489829 LenScr=    39014400 LnRSAI=    32112720
 LnScr1=    48932352 LExtra=           0 Total=    137104902
 MaxDsk=          -1 SrtSym=           T ITran=            4
 JobTyp=0 Pass  1:  I=   1 to  12.
 (rs|ai) integrals will be sorted in core.
 Spin components of T(2) and E(2):
     alpha-alpha T2 =       0.3178232556D-01 E2=     -0.1164364831D+00
     alpha-beta  T2 =       0.1623690679D+00 E2=     -0.6460081104D+00
     beta-beta   T2 =       0.3178232556D-01 E2=     -0.1164364831D+00
 ANorm=    0.1107218912D+01
 E2 =    -0.8788810766D+00 EUMP2 =    -0.27483264630334D+03
 Keep R2 and R3 ints in memory in symmetry-blocked form, NReq=181490657.
 CIDS: In Core Option IDoMem=           1.
 Iterations=  50 Convergence= 0.100D-06
 Produce multiple copies of IABC intergrals
 Iteration Nr.   1
 **********************
 DD1Dir will call FoFMem   1 times, MxPair=       156
 NAB=    78 NAA=     0 NBB=     0.
 MP4(R+Q)=  0.14298469D-01
 E3=        0.27357865D-01        EUMP3=      -0.27480528844D+03
 E4(DQ)=   -0.52771051D-02        UMP4(DQ)=   -0.27481056554D+03
 E4(SDQ)=  -0.18924272D-01        UMP4(SDQ)=  -0.27482421271D+03
 DE(Corr)= -0.83630231     E(Corr)=     -274.79006753    
 NORM(A)=   0.10983356D+01
 Iteration Nr.   2
 **********************
 DD1Dir will call FoFMem   1 times, MxPair=       156
 NAB=    78 NAA=     0 NBB=     0.
 DE(Corr)= -0.86452631     E(CORR)=     -274.81829154     Delta=-2.82D-02
 NORM(A)=   0.11064701D+01
 Iteration Nr.   3
 **********************
 DD1Dir will call FoFMem   1 times, MxPair=       156
 NAB=    78 NAA=     0 NBB=     0.
 DE(Corr)= -0.86122789     E(CORR)=     -274.81499312     Delta= 3.30D-03
 NORM(A)=   0.11095537D+01
 Iteration Nr.   4
 **********************
 DD1Dir will call FoFMem   1 times, MxPair=       156
 NAB=    78 NAA=     0 NBB=     0.
 DE(Corr)= -0.86365843     E(CORR)=     -274.81742366     Delta=-2.43D-03
 NORM(A)=   0.11106223D+01
 Iteration Nr.   5
 **********************
 DD1Dir will call FoFMem   1 times, MxPair=       156
 NAB=    78 NAA=     0 NBB=     0.
 DE(Corr)= -0.86394278     E(CORR)=     -274.81770801     Delta=-2.84D-04
 NORM(A)=   0.11109076D+01
 Iteration Nr.   6
 **********************
 DD1Dir will call FoFMem   1 times, MxPair=       156
 NAB=    78 NAA=     0 NBB=     0.
 DE(Corr)= -0.86396257     E(CORR)=     -274.81772780     Delta=-1.98D-05
 NORM(A)=   0.11110101D+01
 Iteration Nr.   7
 **********************
 DD1Dir will call FoFMem   1 times, MxPair=       156
 NAB=    78 NAA=     0 NBB=     0.
 DE(Corr)= -0.86395987     E(CORR)=     -274.81772510     Delta= 2.70D-06
 NORM(A)=   0.11110234D+01
 Iteration Nr.   8
 **********************
 DD1Dir will call FoFMem   1 times, MxPair=       156
 NAB=    78 NAA=     0 NBB=     0.
 DE(Corr)= -0.86397373     E(CORR)=     -274.81773895     Delta=-1.39D-05
 NORM(A)=   0.11110342D+01
 Iteration Nr.   9
 **********************
 DD1Dir will call FoFMem   1 times, MxPair=       156
 NAB=    78 NAA=     0 NBB=     0.
 DE(Corr)= -0.86396239     E(CORR)=     -274.81772761     Delta= 1.13D-05
 NORM(A)=   0.11110407D+01
 Iteration Nr.  10
 **********************
 DD1Dir will call FoFMem   1 times, MxPair=       156
 NAB=    78 NAA=     0 NBB=     0.
 DE(Corr)= -0.86396567     E(CORR)=     -274.81773090     Delta=-3.28D-06
 NORM(A)=   0.11110385D+01
 Iteration Nr.  11
 **********************
 DD1Dir will call FoFMem   1 times, MxPair=       156
 NAB=    78 NAA=     0 NBB=     0.
 DE(Corr)= -0.86396415     E(CORR)=     -274.81772938     Delta= 1.52D-06
 NORM(A)=   0.11110374D+01
 Iteration Nr.  12
 **********************
 DD1Dir will call FoFMem   1 times, MxPair=       156
 NAB=    78 NAA=     0 NBB=     0.
 DE(Corr)= -0.86396332     E(CORR)=     -274.81772855     Delta= 8.24D-07
 NORM(A)=   0.11110358D+01
 Iteration Nr.  13
 **********************
 DD1Dir will call FoFMem   1 times, MxPair=       156
 NAB=    78 NAA=     0 NBB=     0.
 DE(Corr)= -0.86396308     E(CORR)=     -274.81772831     Delta= 2.41D-07
 NORM(A)=   0.11110348D+01
 Iteration Nr.  14
 **********************
 DD1Dir will call FoFMem   1 times, MxPair=       156
 NAB=    78 NAA=     0 NBB=     0.
 DE(Corr)= -0.86396292     E(CORR)=     -274.81772815     Delta= 1.59D-07
 NORM(A)=   0.11110343D+01
 Iteration Nr.  15
 **********************
 DD1Dir will call FoFMem   1 times, MxPair=       156
 NAB=    78 NAA=     0 NBB=     0.
 DE(Corr)= -0.86396283     E(CORR)=     -274.81772805     Delta= 9.93D-08
 NORM(A)=   0.11110341D+01
 Wavefunction amplitudes converged. E(Corr)=     -274.81772805    
 Largest amplitude= 3.62D-02
 Discarding MO integrals.

 **********************************************************************

            Population analysis using the SCF Density.

 **********************************************************************

 Orbital symmetries:
       Occupied  (A1) (B2) (A1) (A1) (A1) (A1) (B2) (A1) (B2) (B1)
                 (A1) (A2) (B2) (B1) (B2) (A1)
       Virtual   (A1) (B2) (B1) (A1) (B2) (A1) (A2) (B2) (A1) (B1)
                 (A1) (B1) (A1) (B1) (B2) (A1) (B1) (A1) (B2) (A2)
                 (B2) (A1) (A1) (A1) (B1) (B2) (A1) (B1) (A1) (A2)
                 (B2) (A1) (B1) (A1) (B2) (A2) (B2) (B1) (A1) (A1)
                 (A1) (B1) (B1) (B2) (A1) (B2) (A2) (A1) (B2) (A2)
                 (B1) (B2) (A1) (A2) (B2) (B1) (A1) (B1) (B2) (A1)
                 (A1) (B2) (A1) (A2) (B2) (A1) (A2) (B2) (B2) (B1)
                 (A1) (B1) (A1) (A1) (A2) (B2) (A2) (B2) (B1) (A1)
                 (B1) (A1) (B2) (B1) (A1) (B1) (A1) (A1) (A2) (B2)
                 (A2) (B2) (B2) (B1) (A1) (B1) (A1) (A2) (A1) (B1)
                 (B2) (A1) (B1) (B2) (A2) (A1) (B1) (B2) (A1) (A1)
                 (A2) (B2) (B1) (A1) (B2) (A1) (A2) (B2) (A2) (B2)
                 (B2) (A1) (B1) (A1) (B1) (B2) (A1) (B2) (A2) (B2)
                 (B1) (A1) (B1) (A1) (A2) (B2) (A2) (B2) (A1) (B2)
                 (B1) (A1) (B1) (A1) (A2) (B2) (A1) (A2) (B2) (B2)
                 (B1) (A1) (B1) (B2) (A2) (A1) (B1) (B2) (A1) (A2)
                 (A1) (B1) (B2) (A1) (A1) (A1) (A1) (B2)
 The electronic state is 1-A1.
 Alpha  occ. eigenvalues --  -25.72314 -20.16809 -20.16807  -7.25772  -0.96515
 Alpha  occ. eigenvalues --   -0.93292  -0.92469  -0.25698  -0.22976  -0.18199
 Alpha  occ. eigenvalues --   -0.18054  -0.09003  -0.08956  -0.07005  -0.07004
 Alpha  occ. eigenvalues --   -0.06987
 Alpha virt. eigenvalues --    0.24324   0.25432   0.25705   0.30821   0.40130
 Alpha virt. eigenvalues --    0.41023   0.43137   0.44112   0.44145   0.46113
 Alpha virt. eigenvalues --    0.46386   0.48225   0.49384   0.55376   0.55418
 Alpha virt. eigenvalues --    0.56486   0.57728   0.58192   0.58807   0.63214
 Alpha virt. eigenvalues --    0.66116   0.68560   0.69769   0.72291   0.72595
 Alpha virt. eigenvalues --    0.73826   0.77205   0.98088   0.98572   0.98793
 Alpha virt. eigenvalues --    0.99271   1.00111   1.00958   1.03357   1.09229
 Alpha virt. eigenvalues --    1.10185   1.11643   1.16631   1.17335   1.22354
 Alpha virt. eigenvalues --    1.25481   1.25548   1.27574   1.29656   1.31030
 Alpha virt. eigenvalues --    1.32988   1.33510   1.34118   1.35651   1.36176
 Alpha virt. eigenvalues --    1.36249   1.38591   1.41104   1.42088   1.46835
 Alpha virt. eigenvalues --    1.51359   1.57528   1.64786   1.65341   1.66449
 Alpha virt. eigenvalues --    1.70057   1.71610   1.85747   1.85884   1.86892
 Alpha virt. eigenvalues --    2.29532   2.31989   2.32315   2.34570   2.34716
 Alpha virt. eigenvalues --    2.35282   2.36668   2.37335   2.38395   2.41798
 Alpha virt. eigenvalues --    2.42318   2.43522   2.43550   2.48166   2.50939
 Alpha virt. eigenvalues --    2.63880   2.64580   2.68740   2.72813   2.73145
 Alpha virt. eigenvalues --    2.74123   2.74480   2.76221   2.87499   2.88222
 Alpha virt. eigenvalues --    2.93417   2.93590   3.00398   3.04563   3.04640
 Alpha virt. eigenvalues --    3.36316   3.36555   3.39449   3.39788   3.40597
 Alpha virt. eigenvalues --    3.42020   3.43530   3.44192   3.44193   3.44312
 Alpha virt. eigenvalues --    3.44346   3.44469   3.45355   3.46892   3.58526
 Alpha virt. eigenvalues --    3.69893   3.69987   3.72670   3.79120   3.79643
 Alpha virt. eigenvalues --    4.06026   4.20184   4.20554   5.06322   5.07070
 Alpha virt. eigenvalues --    5.29243   5.62315   5.74098   5.74700   5.79195
 Alpha virt. eigenvalues --    5.79679   5.81300   6.22627   6.89169   6.89183
 Alpha virt. eigenvalues --    6.97394   6.97646   7.07537   7.07591   7.10419
 Alpha virt. eigenvalues --    7.10683   7.21861   7.22263   7.22491   7.30459
 Alpha virt. eigenvalues --    7.36402   7.36600   7.50431   7.51042   7.63672
 Alpha virt. eigenvalues --    7.63724   7.84168   7.91725   7.91859   8.12971
 Alpha virt. eigenvalues --    8.26654   8.29025   9.37840   9.37841   9.37897
 Alpha virt. eigenvalues --    9.37917   9.37974   9.38207   9.38268   9.85607
 Alpha virt. eigenvalues --    9.85712   9.86251   9.87227   9.89077  11.37128
 Alpha virt. eigenvalues --   12.03463  15.09708  17.26921
          Condensed to atoms (all electrons):
               1          2          3          4
     1  F   10.015084  -0.000645  -0.007771  -0.000645
     2  O   -0.000645   8.694050   0.233761  -0.145705
     3  B   -0.007771   0.233761   3.971302   0.233761
     4  O   -0.000645  -0.145705   0.233761   8.694050
 Mulliken charges:
               1
     1  F   -1.006023
     2  O   -0.781461
     3  B    0.568946
     4  O   -0.781461
 Sum of Mulliken charges =  -2.00000
 Mulliken charges with hydrogens summed into heavy atoms:
               1
     1  F   -1.006023
     2  O   -0.781461
     3  B    0.568946
     4  O   -0.781461
 Electronic spatial extent (au):  <R**2>=            593.2344
 Charge=             -2.0000 electrons
 Dipole moment (field-independent basis, Debye):
    X=              0.0000    Y=             -0.0000    Z=             -7.6027  Tot=              7.6027
 Quadrupole moment (field-independent basis, Debye-Ang):
   XX=            -25.1672   YY=            -39.4826   ZZ=            -77.2782
   XY=             -0.0000   XZ=             -0.0000   YZ=              0.0000
 Traceless Quadrupole moment (field-independent basis, Debye-Ang):
   XX=             22.1421   YY=              7.8268   ZZ=            -29.9689
   XY=             -0.0000   XZ=             -0.0000   YZ=              0.0000
 Octapole moment (field-independent basis, Debye-Ang**2):
  XXX=              0.0000  YYY=              0.0000  ZZZ=           -109.9341  XYY=              0.0000
  XXY=              0.0000  XXZ=              1.8055  XZZ=              0.0000  YZZ=             -0.0000
  YYZ=             20.6314  XYZ=              0.0000
 Hexadecapole moment (field-independent basis, Debye-Ang**3):
 XXXX=            -28.1392 YYYY=           -181.3957 ZZZZ=           -981.1016 XXXY=             -0.0000
 XXXZ=             -0.0000 YYYX=             -0.0000 YYYZ=             -0.0000 ZZZX=             -0.0000
 ZZZY=              0.0000 XXYY=            -32.8457 XXZZ=           -102.0461 YYZZ=           -149.9117
 XXYZ=              0.0000 YYXZ=             -0.0000 ZZXY=             -0.0000
 N-N= 7.004734060817D+01 E-N=-8.070528148581D+02  KE= 2.738078102234D+02
 Symmetry A1   KE= 1.818237984251D+02
 Symmetry A2   KE= 4.255585194144D+00
 Symmetry B1   KE= 9.168636207826D+00
 Symmetry B2   KE= 7.855979039628D+01
 1\1\GINC-HELIOS\SP\RCCSD-FC\Aug-CC-pVTZ\B1F1O2(2-)\POHL\26-May-2025\0\
 \# CCSD/aug-cc-pVTZ SP\\Single-point energy of X- + Y- at fixed distan
 ce R\\-2,1\F,0,0.,0.,4.2\O,0,-1.261,0.,0.\B,0,0.,0.,0.\O,0,1.261,0.,0.
 \\Version=EM64L-G16RevB.01\State=1-A1\HF=-273.9537652\MP2=-274.8326463
 \MP3=-274.8052884\MP4D=-274.824864\MP4DQ=-274.8105655\MP4SDQ=-274.8242
 127\CCSD=-274.8177281\RMSD=6.558e-09\PG=C02V [C2(B1F1),SGV(O2)]\\@


 THOSE WITH THE GOLD MAKE THE RULES.

             -- PETER'S GOLDEN RULE
 Job cpu time:       0 days  0 hours  8 minutes 16.2 seconds.
 Elapsed time:       0 days  0 hours  0 minutes 49.8 seconds.
 File lengths (MBytes):  RWF=   1094 Int=      0 D2E=      0 Chk=      3 Scr=      1
 Normal termination of Gaussian 16 at Mon May 26 13:39:13 2025.
