 Entering Gaussian System, Link 0=g16
 Input=nn.com
 Output=nn.log
 Initial command:
 /opt/g16/l1.exe "/home/pohl/scratches/g16/Gau-2047805.inp" -scrdir="/home/pohl/scratches/g16/"
 Entering Link 1 = /opt/g16/l1.exe PID=   2047807.
  
 Copyright (c) 1988-2017, Gaussian, Inc.  All Rights Reserved.
  
 This is part of the Gaussian(R) 16 program.  It is based on
 the Gaussian(R) 09 system (copyright 2009, Gaussian, Inc.),
 the Gaussian(R) 03 system (copyright 2003, Gaussian, Inc.),
 the Gaussian(R) 98 system (copyright 1998, Gaussian, Inc.),
 the Gaussian(R) 94 system (copyright 1995, Gaussian, Inc.),
 the Gaussian 92(TM) system (copyright 1992, Gaussian, Inc.),
 the Gaussian 90(TM) system (copyright 1990, Gaussian, Inc.),
 the Gaussian 88(TM) system (copyright 1988, Gaussian, Inc.),
 the Gaussian 86(TM) system (copyright 1986, Carnegie Mellon
 University), and the Gaussian 82(TM) system (copyright 1983,
 Carnegie Mellon University). Gaussian is a federally registered
 trademark of Gaussian, Inc.
  
 This software contains proprietary and confidential information,
 including trade secrets, belonging to Gaussian, Inc.
  
 This software is provided under written license and may be
 used, copied, transmitted, or stored only in accord with that
 written license.
  
 The following legend is applicable only to US Government
 contracts under FAR:
  
                    RESTRICTED RIGHTS LEGEND
  
 Use, reproduction and disclosure by the US Government is
 subject to restrictions as set forth in subparagraphs (a)
 and (c) of the Commercial Computer Software - Restricted
 Rights clause in FAR 52.227-19.
  
 Gaussian, Inc.
 340 Quinnipiac St., Bldg. 40, Wallingford CT 06492
  
  
 ---------------------------------------------------------------
 Warning -- This program may not be used in any manner that
 competes with the business of Gaussian, Inc. or will provide
 assistance to any competitor of Gaussian, Inc.  The licensee
 of this program is prohibited from giving any competitor of
 Gaussian, Inc. access to this program.  By using this program,
 the user acknowledges that Gaussian, Inc. is engaged in the
 business of creating and licensing software in the field of
 computational chemistry and represents and warrants to the
 licensee that it is not a competitor of Gaussian, Inc. and that
 it will not use this program in any manner prohibited above.
 ---------------------------------------------------------------
  

 Cite this work as:
 Gaussian 16, Revision B.01,
 M. J. Frisch, G. W. Trucks, H. B. Schlegel, G. E. Scuseria, 
 M. A. Robb, J. R. Cheeseman, G. Scalmani, V. Barone, 
 G. A. Petersson, H. Nakatsuji, X. Li, M. Caricato, A. V. Marenich, 
 J. Bloino, B. G. Janesko, R. Gomperts, B. Mennucci, H. P. Hratchian, 
 J. V. Ortiz, A. F. Izmaylov, J. L. Sonnenberg, D. Williams-Young, 
 F. Ding, F. Lipparini, F. Egidi, J. Goings, B. Peng, A. Petrone, 
 T. Henderson, D. Ranasinghe, V. G. Zakrzewski, J. Gao, N. Rega, 
 G. Zheng, W. Liang, M. Hada, M. Ehara, K. Toyota, R. Fukuda, 
 J. Hasegawa, M. Ishida, T. Nakajima, Y. Honda, O. Kitao, H. Nakai, 
 T. Vreven, K. Throssell, J. A. Montgomery, Jr., J. E. Peralta, 
 F. Ogliaro, M. J. Bearpark, J. J. Heyd, E. N. Brothers, K. N. Kudin, 
 V. N. Staroverov, T. A. Keith, R. Kobayashi, J. Normand, 
 K. Raghavachari, A. P. Rendell, J. C. Burant, S. S. Iyengar, 
 J. Tomasi, M. Cossi, J. M. Millam, M. Klene, C. Adamo, R. Cammi, 
 J. W. Ochterski, R. L. Martin, K. Morokuma, O. Farkas, 
 J. B. Foresman, and D. J. Fox, Gaussian, Inc., Wallingford CT, 2016.
 
 ******************************************
 Gaussian 16:  EM64L-G16RevB.01 20-Dec-2017
                27-May-2025 
 ******************************************
 %mem=30GB
 %nprocshared=10
 Will use up to   10 processors via shared memory.
 ---------------------
 # CCSD/aug-cc-pVTZ SP
 ---------------------
 1/38=1,172=1/1;
 2/12=2,17=6,18=5,40=1/2;
 3/5=16,6=1,7=10,11=9,25=1,30=1/1,2,3;
 4//1;
 5/5=2,38=5/2;
 8/6=4,9=120000,10=1/1,4;
 9/5=7/13;
 6/7=2,8=2,9=2,10=2/1;
 99/5=1,9=1/99;
 --------------------------------------------------
 Single-point energy of X- + Y- at fixed distance R
 --------------------------------------------------
 Symbolic Z-matrix:
 Charge = -2 Multiplicity = 1
 F                     0.        0.        2.7 
 O                    -1.261     0.        0. 
 B                     0.        0.        0. 
 O                     1.261     0.        0. 
 
                          Input orientation:                          
 ---------------------------------------------------------------------
 Center     Atomic      Atomic             Coordinates (Angstroms)
 Number     Number       Type             X           Y           Z
 ---------------------------------------------------------------------
      1          9           0        0.000000    0.000000    2.700000
      2          8           0       -1.261000    0.000000    0.000000
      3          5           0        0.000000    0.000000    0.000000
      4          8           0        1.261000    0.000000    0.000000
 ---------------------------------------------------------------------
                    Distance matrix (angstroms):
                    1          2          3          4
     1  F    0.000000
     2  O    2.979953   0.000000
     3  B    2.700000   1.261000   0.000000
     4  O    2.979953   2.522000   1.261000   0.000000
 Stoichiometry    BFO2(2-)
 Framework group  C2V[C2(BF),SGV(O2)]
 Deg. of freedom     3
 Full point group                 C2V     NOp   4
 Largest Abelian subgroup         C2V     NOp   4
 Largest concise Abelian subgroup C2      NOp   2
                         Standard orientation:                         
 ---------------------------------------------------------------------
 Center     Atomic      Atomic             Coordinates (Angstroms)
 Number     Number       Type             X           Y           Z
 ---------------------------------------------------------------------
      1          9           0       -0.000000    0.000000    1.890000
      2          8           0        0.000000    1.261000   -0.810000
      3          5           0        0.000000    0.000000   -0.810000
      4          8           0       -0.000000   -1.261000   -0.810000
 ---------------------------------------------------------------------
 Rotational constants (GHZ):           9.9351655           5.2612301           3.4397099
 Standard basis: Aug-CC-pVTZ (5D, 7F)
 There are    85 symmetry adapted cartesian basis functions of A1  symmetry.
 There are    28 symmetry adapted cartesian basis functions of A2  symmetry.
 There are    44 symmetry adapted cartesian basis functions of B1  symmetry.
 There are    63 symmetry adapted cartesian basis functions of B2  symmetry.
 There are    68 symmetry adapted basis functions of A1  symmetry.
 There are    26 symmetry adapted basis functions of A2  symmetry.
 There are    38 symmetry adapted basis functions of B1  symmetry.
 There are    52 symmetry adapted basis functions of B2  symmetry.
   184 basis functions,   288 primitive gaussians,   220 cartesian basis functions
    16 alpha electrons       16 beta electrons
       nuclear repulsion energy        81.3916733825 Hartrees.
 NAtoms=    4 NActive=    4 NUniq=    3 SFac= 1.78D+00 NAtFMM=   60 NAOKFM=F Big=F
 Integral buffers will be    131072 words long.
 Raffenetti 1 integral format.
 Two-electron integral symmetry is turned on.
 One-electron integrals computed using PRISM.
 NBasis=   184 RedAO= T EigKep=  5.33D-05  NBF=    68    26    38    52
 NBsUse=   184 1.00D-06 EigRej= -1.00D+00 NBFU=    68    26    38    52
 ExpMin= 2.10D-02 ExpMax= 1.95D+04 ExpMxC= 6.65D+02 IAcc=3 IRadAn=         5 AccDes= 0.00D+00
 Harris functional with IExCor=  205 and IRadAn=       5 diagonalized for initial guess.
 HarFok:  IExCor=  205 AccDes= 0.00D+00 IRadAn=         5 IDoV= 1 UseB2=F ITyADJ=14
 ICtDFT=  3500011 ScaDFX=  1.000000  1.000000  1.000000  1.000000
 FoFCou: FMM=F IPFlag=           0 FMFlag=      100000 FMFlg1=           0
         NFxFlg=           0 DoJE=T BraDBF=F KetDBF=T FulRan=T
         wScrn=  0.000000 ICntrl=       500 IOpCl=  0 I1Cent=   200000004 NGrid=           0
         NMat0=    1 NMatS0=      1 NMatT0=    0 NMatD0=    1 NMtDS0=    0 NMtDT0=    0
 Petite list used in FoFCou.
 Initial guess orbital symmetries:
       Occupied  (A1) (B2) (A1) (A1) (A1) (B2) (A1) (A1) (B2) (A1)
                 (B1) (B2) (A2) (B1) (A1) (B2)
       Virtual   (A1) (B1) (A1) (B2) (A1) (B1) (A1) (A1) (B1) (B2)
                 (A1) (A2) (B2) (B1) (A1) (B2) (A1) (B1) (A1) (B2)
                 (B1) (A1) (A2) (B2) (A1) (A1) (B2) (B1) (A1) (A2)
                 (A1) (B2) (B1) (A1) (B2) (A2) (B2) (B1) (A1) (B2)
                 (A1) (B2) (A1) (A2) (B1) (A2) (B1) (A1) (A1) (B2)
                 (B1) (B2) (A1) (B2) (B1) (B2) (A2) (B1) (A1) (A1)
                 (B2) (A1) (B2) (A2) (A1) (A1) (A2) (B2) (B2) (A1)
                 (B1) (A1) (B1) (A2) (B2) (A2) (B2) (A1) (B1) (B1)
                 (A1) (A1) (B1) (B2) (A1) (A1) (B1) (A1) (A2) (B2)
                 (A2) (B2) (B2) (A1) (B1) (A2) (A1) (B1) (A1) (B2)
                 (B1) (A1) (B2) (B1) (A2) (A1) (B1) (A1) (B2) (B1)
                 (A1) (A2) (B2) (B2) (A1) (A1) (A2) (B2) (A2) (B2)
                 (B2) (A1) (B1) (B2) (B1) (A1) (A1) (B2) (A2) (B2)
                 (B1) (A1) (B1) (A1) (A2) (B2) (A2) (B2) (A1) (B2)
                 (B1) (A1) (B1) (A1) (A2) (B2) (A1) (A2) (B2) (B2)
                 (B1) (A1) (B1) (B2) (A2) (A1) (B1) (B2) (A1) (A2)
                 (A1) (B1) (B2) (A1) (A1) (A1) (A1) (B2)
 The electronic state of the initial guess is 1-A1.
 Keep R1 ints in memory in symmetry-blocked form, NReq=181483703.
 Requested convergence on RMS density matrix=1.00D-08 within 128 cycles.
 Requested convergence on MAX density matrix=1.00D-06.
 Requested convergence on             energy=1.00D-06.
 No special actions if energy rises.
 SCF Done:  E(RHF) =  -273.914574541     A.U. after   12 cycles
            NFock= 12  Conv=0.48D-08     -V/T= 2.0004
 ExpMin= 2.10D-02 ExpMax= 1.95D+04 ExpMxC= 6.65D+02 IAcc=3 IRadAn=         5 AccDes= 0.00D+00
 HarFok:  IExCor=  205 AccDes= 0.00D+00 IRadAn=         5 IDoV=-2 UseB2=F ITyADJ=14
 ICtDFT= 12500011 ScaDFX=  1.000000  1.000000  1.000000  1.000000
 Range of M.O.s used for correlation:     5   184
 NBasis=   184 NAE=    16 NBE=    16 NFC=     4 NFV=     0
 NROrb=    180 NOA=    12 NOB=    12 NVA=   168 NVB=   168

 **** Warning!!: The largest alpha MO coefficient is  0.38593277D+02

 Semi-Direct transformation.
 ModeAB=           4 MOrb=            12 LenV=    4025577677
 LASXX=      8444399 LTotXX=     8444399 LenRXX=    17045430
 LTotAB=     8601031 MaxLAS=    33883920 LenRXY=           0
 NonZer=    25489829 LenScr=    39014400 LnRSAI=    33883920
 LnScr1=    51600384 LExtra=           0 Total=    141544134
 MaxDsk=          -1 SrtSym=           T ITran=            4
 JobTyp=0 Pass  1:  I=   1 to  12.
 (rs|ai) integrals will be sorted in core.
 Spin components of T(2) and E(2):
     alpha-alpha T2 =       0.3206573637D-01 E2=     -0.1170942937D+00
     alpha-beta  T2 =       0.1629513148D+00 E2=     -0.6473311353D+00
     beta-beta   T2 =       0.3206573637D-01 E2=     -0.1170942937D+00
 ANorm=    0.1107737689D+01
 E2 =    -0.8815197227D+00 EUMP2 =    -0.27479609426393D+03
 Keep R2 and R3 ints in memory in symmetry-blocked form, NReq=181490657.
 CIDS: In Core Option IDoMem=           1.
 Iterations=  50 Convergence= 0.100D-06
 Produce multiple copies of IABC intergrals
 Iteration Nr.   1
 **********************
 DD1Dir will call FoFMem   1 times, MxPair=       156
 NAB=    78 NAA=     0 NBB=     0.
 MP4(R+Q)=  0.14682864D-01
 E3=        0.27555802D-01        EUMP3=      -0.27476853846D+03
 E4(DQ)=   -0.49632359D-02        UMP4(DQ)=   -0.27477350170D+03
 E4(SDQ)=  -0.19167089D-01        UMP4(SDQ)=  -0.27478770555D+03
 DE(Corr)= -0.83831515     E(Corr)=     -274.75288969    
 NORM(A)=   0.10991482D+01
 Iteration Nr.   2
 **********************
 DD1Dir will call FoFMem   1 times, MxPair=       156
 NAB=    78 NAA=     0 NBB=     0.
 DE(Corr)= -0.86719619     E(CORR)=     -274.78177073     Delta=-2.89D-02
 NORM(A)=   0.11073651D+01
 Iteration Nr.   3
 **********************
 DD1Dir will call FoFMem   1 times, MxPair=       156
 NAB=    78 NAA=     0 NBB=     0.
 DE(Corr)= -0.86357068     E(CORR)=     -274.77814523     Delta= 3.63D-03
 NORM(A)=   0.11109219D+01
 Iteration Nr.   4
 **********************
 DD1Dir will call FoFMem   1 times, MxPair=       156
 NAB=    78 NAA=     0 NBB=     0.
 DE(Corr)= -0.86615224     E(CORR)=     -274.78072678     Delta=-2.58D-03
 NORM(A)=   0.11121053D+01
 Iteration Nr.   5
 **********************
 DD1Dir will call FoFMem   1 times, MxPair=       156
 NAB=    78 NAA=     0 NBB=     0.
 DE(Corr)= -0.86648490     E(CORR)=     -274.78105944     Delta=-3.33D-04
 NORM(A)=   0.11126408D+01
 Iteration Nr.   6
 **********************
 DD1Dir will call FoFMem   1 times, MxPair=       156
 NAB=    78 NAA=     0 NBB=     0.
 DE(Corr)= -0.86652746     E(CORR)=     -274.78110200     Delta=-4.26D-05
 NORM(A)=   0.11128814D+01
 Iteration Nr.   7
 **********************
 DD1Dir will call FoFMem   1 times, MxPair=       156
 NAB=    78 NAA=     0 NBB=     0.
 DE(Corr)= -0.86652517     E(CORR)=     -274.78109971     Delta= 2.29D-06
 NORM(A)=   0.11129531D+01
 Iteration Nr.   8
 **********************
 DD1Dir will call FoFMem   1 times, MxPair=       156
 NAB=    78 NAA=     0 NBB=     0.
 DE(Corr)= -0.86656053     E(CORR)=     -274.78113508     Delta=-3.54D-05
 NORM(A)=   0.11130103D+01
 Iteration Nr.   9
 **********************
 DD1Dir will call FoFMem   1 times, MxPair=       156
 NAB=    78 NAA=     0 NBB=     0.
 DE(Corr)= -0.86652952     E(CORR)=     -274.78110406     Delta= 3.10D-05
 NORM(A)=   0.11130485D+01
 Iteration Nr.  10
 **********************
 DD1Dir will call FoFMem   1 times, MxPair=       156
 NAB=    78 NAA=     0 NBB=     0.
 DE(Corr)= -0.86654253     E(CORR)=     -274.78111707     Delta=-1.30D-05
 NORM(A)=   0.11130383D+01
 Iteration Nr.  11
 **********************
 DD1Dir will call FoFMem   1 times, MxPair=       156
 NAB=    78 NAA=     0 NBB=     0.
 DE(Corr)= -0.86653646     E(CORR)=     -274.78111100     Delta= 6.07D-06
 NORM(A)=   0.11130376D+01
 Iteration Nr.  12
 **********************
 DD1Dir will call FoFMem   1 times, MxPair=       156
 NAB=    78 NAA=     0 NBB=     0.
 DE(Corr)= -0.86653404     E(CORR)=     -274.78110858     Delta= 2.42D-06
 NORM(A)=   0.11130313D+01
 Iteration Nr.  13
 **********************
 DD1Dir will call FoFMem   1 times, MxPair=       156
 NAB=    78 NAA=     0 NBB=     0.
 DE(Corr)= -0.86653320     E(CORR)=     -274.78110774     Delta= 8.37D-07
 NORM(A)=   0.11130282D+01
 Iteration Nr.  14
 **********************
 DD1Dir will call FoFMem   1 times, MxPair=       156
 NAB=    78 NAA=     0 NBB=     0.
 DE(Corr)= -0.86653281     E(CORR)=     -274.78110735     Delta= 3.91D-07
 NORM(A)=   0.11130264D+01
 Iteration Nr.  15
 **********************
 DD1Dir will call FoFMem   1 times, MxPair=       156
 NAB=    78 NAA=     0 NBB=     0.
 DE(Corr)= -0.86653230     E(CORR)=     -274.78110684     Delta= 5.17D-07
 NORM(A)=   0.11130251D+01
 Iteration Nr.  16
 **********************
 DD1Dir will call FoFMem   1 times, MxPair=       156
 NAB=    78 NAA=     0 NBB=     0.
 DE(Corr)= -0.86653227     E(CORR)=     -274.78110681     Delta= 3.00D-08
 NORM(A)=   0.11130240D+01
 Wavefunction amplitudes converged. E(Corr)=     -274.78110681    
 Largest amplitude= 2.98D-02
 Discarding MO integrals.

 **********************************************************************

            Population analysis using the SCF Density.

 **********************************************************************

 Orbital symmetries:
       Occupied  (A1) (B2) (A1) (A1) (A1) (A1) (B2) (A1) (B2) (A1)
                 (B1) (B2) (A2) (B1) (A1) (B2)
       Virtual   (A1) (B2) (B1) (A1) (B2) (A1) (A2) (A1) (B2) (A1)
                 (B1) (A1) (B1) (A1) (B2) (B1) (B1) (B2) (A2) (A1)
                 (B2) (A1) (A1) (B1) (B2) (A1) (A1) (A1) (B1) (A2)
                 (A1) (B2) (B1) (B2) (A2) (A1) (B2) (B1) (A1) (A1)
                 (B1) (B1) (A1) (B2) (B2) (A1) (A2) (B2) (A2) (A1)
                 (B2) (A2) (A1) (B1) (B1) (B2) (A1) (B1) (A1) (B2)
                 (B2) (A2) (A1) (B2) (A1) (A2) (A1) (B2) (B2) (B1)
                 (A1) (B1) (A1) (A2) (B2) (A2) (B1) (A1) (B2) (B1)
                 (A1) (B2) (A1) (B1) (A1) (B1) (A1) (A1) (A2) (B2)
                 (A2) (B2) (B2) (B1) (A1) (A1) (B1) (A2) (A1) (B1)
                 (B2) (B1) (A1) (B2) (A2) (A1) (B1) (A1) (B2) (A2)
                 (B2) (B1) (A1) (B2) (A1) (A1) (A2) (B2) (A2) (B2)
                 (B2) (A1) (B1) (A1) (B1) (B2) (A1) (B2) (A2) (B2)
                 (B1) (A1) (B1) (A1) (A2) (B2) (A2) (B2) (A1) (B2)
                 (B1) (A1) (B1) (A1) (A2) (B2) (A1) (A2) (B2) (B2)
                 (B1) (A1) (B1) (B2) (A2) (A1) (B1) (B2) (A1) (A2)
                 (A1) (B1) (B2) (A1) (A1) (A1) (A1) (B2)
 The electronic state is 1-A1.
 Alpha  occ. eigenvalues --  -25.69244 -20.11746 -20.11744  -7.20887  -0.93697
 Alpha  occ. eigenvalues --   -0.88196  -0.87437  -0.20812  -0.18169  -0.13277
 Alpha  occ. eigenvalues --   -0.13205  -0.05172  -0.04055  -0.04046  -0.03644
 Alpha  occ. eigenvalues --   -0.02929
 Alpha virt. eigenvalues --    0.25741   0.26419   0.26925   0.31673   0.41677
 Alpha virt. eigenvalues --    0.42833   0.45390   0.45545   0.46580   0.47021
 Alpha virt. eigenvalues --    0.48262   0.51259   0.51680   0.56957   0.57755
 Alpha virt. eigenvalues --    0.59773   0.62270   0.63423   0.66262   0.68720
 Alpha virt. eigenvalues --    0.69826   0.70208   0.75471   0.77006   0.77829
 Alpha virt. eigenvalues --    0.79603   0.84390   1.02138   1.02281   1.03344
 Alpha virt. eigenvalues --    1.05762   1.07548   1.10316   1.13136   1.13748
 Alpha virt. eigenvalues --    1.15095   1.17789   1.20723   1.23944   1.26227
 Alpha virt. eigenvalues --    1.30436   1.32256   1.33266   1.33318   1.37225
 Alpha virt. eigenvalues --    1.38037   1.38613   1.39448   1.40787   1.42719
 Alpha virt. eigenvalues --    1.48842   1.50010   1.54774   1.55581   1.56596
 Alpha virt. eigenvalues --    1.59640   1.66090   1.72782   1.73103   1.76562
 Alpha virt. eigenvalues --    1.79217   1.90264   1.91052   1.92185   2.05645
 Alpha virt. eigenvalues --    2.37555   2.39441   2.39749   2.40045   2.40622
 Alpha virt. eigenvalues --    2.41891   2.43052   2.43284   2.46702   2.48108
 Alpha virt. eigenvalues --    2.48812   2.58235   2.58714   2.60044   2.68760
 Alpha virt. eigenvalues --    2.70826   2.73384   2.75883   2.77890   2.79516
 Alpha virt. eigenvalues --    2.79710   2.80980   2.87835   2.91903   2.93174
 Alpha virt. eigenvalues --    2.98633   2.98911   3.04967   3.09473   3.09733
 Alpha virt. eigenvalues --    3.39032   3.40611   3.44041   3.45245   3.46455
 Alpha virt. eigenvalues --    3.47915   3.48200   3.49507   3.50732   3.51341
 Alpha virt. eigenvalues --    3.56184   3.62366   3.69868   3.71573   3.75235
 Alpha virt. eigenvalues --    3.76806   3.77927   3.80585   3.85771   3.91908
 Alpha virt. eigenvalues --    4.13423   4.24890   4.26946   5.11324   5.13231
 Alpha virt. eigenvalues --    5.34481   5.68390   5.79058   5.81145   5.84718
 Alpha virt. eigenvalues --    5.88883   6.13097   6.27635   6.94418   6.96811
 Alpha virt. eigenvalues --    7.03383   7.03761   7.13376   7.15524   7.16176
 Alpha virt. eigenvalues --    7.18279   7.26715   7.28336   7.32897   7.36585
 Alpha virt. eigenvalues --    7.41285   7.42331   7.55542   7.58177   7.68684
 Alpha virt. eigenvalues --    7.69416   7.89706   7.96693   7.99266   8.18262
 Alpha virt. eigenvalues --    8.31805   8.36646   9.41009   9.41429   9.42534
 Alpha virt. eigenvalues --    9.43479   9.44540   9.49781   9.51099   9.90214
 Alpha virt. eigenvalues --    9.91742   9.96587  10.00193  10.05213  11.81780
 Alpha virt. eigenvalues --   12.19767  15.17913  17.35238
          Condensed to atoms (all electrons):
               1          2          3          4
     1  F   10.123796  -0.016248  -0.067749  -0.016248
     2  O   -0.016248   8.777685   0.232901  -0.165667
     3  B   -0.067749   0.232901   3.921054   0.232901
     4  O   -0.016248  -0.165667   0.232901   8.777685
 Mulliken charges:
               1
     1  F   -1.023551
     2  O   -0.828671
     3  B    0.680893
     4  O   -0.828671
 Sum of Mulliken charges =  -2.00000
 Mulliken charges with hydrogens summed into heavy atoms:
               1
     1  F   -1.023551
     2  O   -0.828671
     3  B    0.680893
     4  O   -0.828671
 Electronic spatial extent (au):  <R**2>=            340.3093
 Charge=             -2.0000 electrons
 Dipole moment (field-independent basis, Debye):
    X=              0.0000    Y=              0.0000    Z=             -4.1225  Tot=              4.1225
 Quadrupole moment (field-independent basis, Debye-Ang):
   XX=            -25.4368   YY=            -40.4497   ZZ=            -49.0416
   XY=             -0.0000   XZ=             -0.0000   YZ=             -0.0000
 Traceless Quadrupole moment (field-independent basis, Debye-Ang):
   XX=             12.8726   YY=             -2.1403   ZZ=            -10.7322
   XY=             -0.0000   XZ=             -0.0000   YZ=             -0.0000
 Octapole moment (field-independent basis, Debye-Ang**2):
  XXX=              0.0000  YYY=             -0.0000  ZZZ=            -26.0887  XYY=              0.0000
  XXY=             -0.0000  XXZ=              1.7677  XZZ=              0.0000  YZZ=             -0.0000
  YYZ=             15.5371  XYZ=              0.0000
 Hexadecapole moment (field-independent basis, Debye-Ang**3):
 XXXX=            -29.5557 YYYY=           -188.3865 ZZZZ=           -344.0244 XXXY=             -0.0000
 XXXZ=             -0.0000 YYYX=             -0.0000 YYYZ=              0.0000 ZZZX=             -0.0000
 ZZZY=              0.0000 XXYY=            -34.0896 XXZZ=            -49.9147 YYZZ=            -85.8779
 XXYZ=             -0.0000 YYXZ=             -0.0000 ZZXY=             -0.0000
 N-N= 8.139167338248D+01 E-N=-8.310616550839D+02  KE= 2.738143728934D+02
 Symmetry A1   KE= 1.818756074658D+02
 Symmetry A2   KE= 4.223207908516D+00
 Symmetry B1   KE= 9.136189448428D+00
 Symmetry B2   KE= 7.857936807072D+01
 1\1\GINC-HELIOS\SP\RCCSD-FC\Aug-CC-pVTZ\B1F1O2(2-)\POHL\27-May-2025\0\
 \# CCSD/aug-cc-pVTZ SP\\Single-point energy of X- + Y- at fixed distan
 ce R\\-2,1\F,0,0.,0.,2.7\O,0,-1.261,0.,0.\B,0,0.,0.,0.\O,0,1.261,0.,0.
 \\Version=EM64L-G16RevB.01\State=1-A1\HF=-273.9145745\MP2=-274.7960943
 \MP3=-274.7685385\MP4D=-274.7881846\MP4DQ=-274.7735017\MP4SDQ=-274.787
 7056\CCSD=-274.7811068\RMSD=4.776e-09\PG=C02V [C2(B1F1),SGV(O2)]\\@


 SUCCESS IS NEVER CERTAIN,
 FAILURE IS NEVER FINAL.
 Job cpu time:       0 days  0 hours  9 minutes 10.5 seconds.
 Elapsed time:       0 days  0 hours  0 minutes 55.3 seconds.
 File lengths (MBytes):  RWF=   1128 Int=      0 D2E=      0 Chk=      3 Scr=      1
 Normal termination of Gaussian 16 at Tue May 27 14:11:28 2025.
