 Entering Gaussian System, Link 0=g16
 Initial command:
 /opt/g16/l1.exe "/home/pohl/scratches/g16/Gau-1323347.inp" -scrdir="/home/pohl/scratches/g16/"
 Entering Link 1 = /opt/g16/l1.exe PID=   1323349.
  
 Copyright (c) 1988-2017, Gaussian, Inc.  All Rights Reserved.
  
 This is part of the Gaussian(R) 16 program.  It is based on
 the Gaussian(R) 09 system (copyright 2009, Gaussian, Inc.),
 the Gaussian(R) 03 system (copyright 2003, Gaussian, Inc.),
 the Gaussian(R) 98 system (copyright 1998, Gaussian, Inc.),
 the Gaussian(R) 94 system (copyright 1995, Gaussian, Inc.),
 the Gaussian 92(TM) system (copyright 1992, Gaussian, Inc.),
 the Gaussian 90(TM) system (copyright 1990, Gaussian, Inc.),
 the Gaussian 88(TM) system (copyright 1988, Gaussian, Inc.),
 the Gaussian 86(TM) system (copyright 1986, Carnegie Mellon
 University), and the Gaussian 82(TM) system (copyright 1983,
 Carnegie Mellon University). Gaussian is a federally registered
 trademark of Gaussian, Inc.
  
 This software contains proprietary and confidential information,
 including trade secrets, belonging to Gaussian, Inc.
  
 This software is provided under written license and may be
 used, copied, transmitted, or stored only in accord with that
 written license.
  
 The following legend is applicable only to US Government
 contracts under FAR:
  
                    RESTRICTED RIGHTS LEGEND
  
 Use, reproduction and disclosure by the US Government is
 subject to restrictions as set forth in subparagraphs (a)
 and (c) of the Commercial Computer Software - Restricted
 Rights clause in FAR 52.227-19.
  
 Gaussian, Inc.
 340 Quinnipiac St., Bldg. 40, Wallingford CT 06492
  
  
 ---------------------------------------------------------------
 Warning -- This program may not be used in any manner that
 competes with the business of Gaussian, Inc. or will provide
 assistance to any competitor of Gaussian, Inc.  The licensee
 of this program is prohibited from giving any competitor of
 Gaussian, Inc. access to this program.  By using this program,
 the user acknowledges that Gaussian, Inc. is engaged in the
 business of creating and licensing software in the field of
 computational chemistry and represents and warrants to the
 licensee that it is not a competitor of Gaussian, Inc. and that
 it will not use this program in any manner prohibited above.
 ---------------------------------------------------------------
  

 Cite this work as:
 Gaussian 16, Revision B.01,
 M. J. Frisch, G. W. Trucks, H. B. Schlegel, G. E. Scuseria, 
 M. A. Robb, J. R. Cheeseman, G. Scalmani, V. Barone, 
 G. A. Petersson, H. Nakatsuji, X. Li, M. Caricato, A. V. Marenich, 
 J. Bloino, B. G. Janesko, R. Gomperts, B. Mennucci, H. P. Hratchian, 
 J. V. Ortiz, A. F. Izmaylov, J. L. Sonnenberg, D. Williams-Young, 
 F. Ding, F. Lipparini, F. Egidi, J. Goings, B. Peng, A. Petrone, 
 T. Henderson, D. Ranasinghe, V. G. Zakrzewski, J. Gao, N. Rega, 
 G. Zheng, W. Liang, M. Hada, M. Ehara, K. Toyota, R. Fukuda, 
 J. Hasegawa, M. Ishida, T. Nakajima, Y. Honda, O. Kitao, H. Nakai, 
 T. Vreven, K. Throssell, J. A. Montgomery, Jr., J. E. Peralta, 
 F. Ogliaro, M. J. Bearpark, J. J. Heyd, E. N. Brothers, K. N. Kudin, 
 V. N. Staroverov, T. A. Keith, R. Kobayashi, J. Normand, 
 K. Raghavachari, A. P. Rendell, J. C. Burant, S. S. Iyengar, 
 J. Tomasi, M. Cossi, J. M. Millam, M. Klene, C. Adamo, R. Cammi, 
 J. W. Ochterski, R. L. Martin, K. Morokuma, O. Farkas, 
 J. B. Foresman, and D. J. Fox, Gaussian, Inc., Wallingford CT, 2016.
 
 ******************************************
 Gaussian 16:  EM64L-G16RevB.01 20-Dec-2017
                 8-May-2025 
 ******************************************
 %mem=30GB
 %nprocshared=10
 Will use up to   10 processors via shared memory.
 ---------------------
 # CCSD/aug-cc-pVTZ SP
 ---------------------
 1/38=1,172=1/1;
 2/12=2,17=6,18=5,40=1/2;
 3/5=16,6=1,7=10,11=9,25=1,30=1/1,2,3;
 4//1;
 5/5=2,38=5/2;
 8/6=4,9=120000,10=1/1,4;
 9/5=7/13;
 6/7=2,8=2,9=2,10=2/1;
 99/5=1,9=1/99;
 --------------------------------------------------
 Single-point energy of X- + Y- at fixed distance R
 --------------------------------------------------
 Symbolic Z-matrix:
 Charge = -2 Multiplicity = 1
 F                     0.        0.        6. 
 F                    -1.139     0.        0. 
 H                     0.        0.        0. 
 F                     1.139     0.        0. 
 
                          Input orientation:                          
 ---------------------------------------------------------------------
 Center     Atomic      Atomic             Coordinates (Angstroms)
 Number     Number       Type             X           Y           Z
 ---------------------------------------------------------------------
      1          9           0        0.000000    0.000000    6.000000
      2          9           0       -1.139000    0.000000    0.000000
      3          1           0        0.000000    0.000000    0.000000
      4          9           0        1.139000    0.000000    0.000000
 ---------------------------------------------------------------------
                    Distance matrix (angstroms):
                    1          2          3          4
     1  F    0.000000
     2  F    6.107153   0.000000
     3  H    6.000000   1.139000   0.000000
     4  F    6.107153   2.278000   1.139000   0.000000
 Stoichiometry    F3H(2-)
 Framework group  C2V[C2(HF),SGV(F2)]
 Deg. of freedom     3
 Full point group                 C2V     NOp   4
 Largest Abelian subgroup         C2V     NOp   4
 Largest concise Abelian subgroup C2      NOp   2
                         Standard orientation:                         
 ---------------------------------------------------------------------
 Center     Atomic      Atomic             Coordinates (Angstroms)
 Number     Number       Type             X           Y           Z
 ---------------------------------------------------------------------
      1          9           0       -0.000000    0.000000    4.071429
      2          9           0        0.000000    1.139000   -1.928571
      3          1           0        0.000000   -0.000000   -1.928571
      4          9           0       -0.000000   -1.139000   -1.928571
 ---------------------------------------------------------------------
 Rotational constants (GHZ):          10.2523318           1.0988341           0.9924630
 Standard basis: Aug-CC-pVTZ (5D, 7F)
 There are    74 symmetry adapted cartesian basis functions of A1  symmetry.
 There are    25 symmetry adapted cartesian basis functions of A2  symmetry.
 There are    36 symmetry adapted cartesian basis functions of B1  symmetry.
 There are    55 symmetry adapted cartesian basis functions of B2  symmetry.
 There are    60 symmetry adapted basis functions of A1  symmetry.
 There are    23 symmetry adapted basis functions of A2  symmetry.
 There are    32 symmetry adapted basis functions of B1  symmetry.
 There are    46 symmetry adapted basis functions of B2  symmetry.
   161 basis functions,   243 primitive gaussians,   190 cartesian basis functions
    15 alpha electrons       15 beta electrons
       nuclear repulsion energy        42.0098512671 Hartrees.
 NAtoms=    4 NActive=    4 NUniq=    3 SFac= 1.78D+00 NAtFMM=   60 NAOKFM=F Big=F
 Integral buffers will be    131072 words long.
 Raffenetti 1 integral format.
 Two-electron integral symmetry is turned on.
 One-electron integrals computed using PRISM.
 NBasis=   161 RedAO= T EigKep=  2.93D-04  NBF=    60    23    32    46
 NBsUse=   161 1.00D-06 EigRej= -1.00D+00 NBFU=    60    23    32    46
 ExpMin= 2.53D-02 ExpMax= 1.95D+04 ExpMxC= 6.65D+02 IAcc=3 IRadAn=         5 AccDes= 0.00D+00
 Harris functional with IExCor=  205 and IRadAn=       5 diagonalized for initial guess.
 HarFok:  IExCor=  205 AccDes= 0.00D+00 IRadAn=         5 IDoV= 1 UseB2=F ITyADJ=14
 ICtDFT=  3500011 ScaDFX=  1.000000  1.000000  1.000000  1.000000
 FoFCou: FMM=F IPFlag=           0 FMFlag=      100000 FMFlg1=           0
         NFxFlg=           0 DoJE=T BraDBF=F KetDBF=T FulRan=T
         wScrn=  0.000000 ICntrl=       500 IOpCl=  0 I1Cent=   200000004 NGrid=           0
         NMat0=    1 NMatS0=      1 NMatT0=    0 NMatD0=    1 NMtDS0=    0 NMtDT0=    0
 Petite list used in FoFCou.
 Initial guess orbital symmetries:
       Occupied  (A1) (B2) (A1) (A1) (B2) (A1) (A1) (A1) (B1) (B2)
                 (B2) (A2) (A1) (B2) (B1)
       Virtual   (A1) (A1) (B2) (B1) (A1) (A1) (B2) (A1) (B1) (A1)
                 (A2) (B2) (B2) (B1) (A1) (A1) (A1) (B2) (B1) (A1)
                 (B2) (B1) (A1) (A2) (A1) (B2) (A2) (B1) (A1) (B2)
                 (A2) (A1) (A1) (B1) (B1) (B2) (A1) (A2) (B2) (B2)
                 (A1) (B1) (A1) (B2) (A1) (A1) (B1) (A1) (B2) (A2)
                 (B2) (B2) (A1) (B1) (A1) (A2) (B2) (A2) (B2) (A1)
                 (B1) (A2) (B2) (A1) (B1) (A1) (B1) (A1) (A2) (B2)
                 (A2) (B2) (B1) (B2) (B1) (A1) (A1) (A2) (B2) (A1)
                 (B1) (A1) (B2) (A2) (B2) (A1) (B2) (B1) (A1) (B1)
                 (A1) (A1) (B1) (A1) (A1) (B1) (B2) (A1) (B1) (A1)
                 (B2) (A2) (B2) (A2) (B2) (B2) (A1) (B1) (A1) (A2)
                 (B2) (A2) (B1) (B2) (B2) (B1) (A1) (A1) (A2) (B2)
                 (B1) (A1) (B2) (B2) (A2) (A1) (B1) (A1) (A2) (B2)
                 (A2) (B2) (B1) (A1) (B1) (A1) (B1) (A1) (A1) (A2)
                 (B2) (A1) (B2) (A1) (B2) (A1)
 The electronic state of the initial guess is 1-A1.
 Keep R1 ints in memory in symmetry-blocked form, NReq=106592091.
 Requested convergence on RMS density matrix=1.00D-08 within 128 cycles.
 Requested convergence on MAX density matrix=1.00D-06.
 Requested convergence on             energy=1.00D-06.
 No special actions if energy rises.
 SCF Done:  E(RHF) =  -298.942848046     A.U. after   10 cycles
            NFock= 10  Conv=0.64D-08     -V/T= 2.0002
 ExpMin= 2.53D-02 ExpMax= 1.95D+04 ExpMxC= 6.65D+02 IAcc=3 IRadAn=         5 AccDes= 0.00D+00
 HarFok:  IExCor=  205 AccDes= 0.00D+00 IRadAn=         5 IDoV=-2 UseB2=F ITyADJ=14
 ICtDFT= 12500011 ScaDFX=  1.000000  1.000000  1.000000  1.000000
 Range of M.O.s used for correlation:     4   161
 NBasis=   161 NAE=    15 NBE=    15 NFC=     3 NFV=     0
 NROrb=    158 NOA=    12 NOB=    12 NVA=   146 NVB=   146

 **** Warning!!: The largest alpha MO coefficient is  0.21436034D+02

 Semi-Direct transformation.
 ModeAB=           4 MOrb=            12 LenV=    4025775882
 LASXX=      5679395 LTotXX=     5679395 LenRXX=    11479218
 LTotAB=     5799823 MaxLAS=    16766328 LenRXY=           0
 NonZer=    17158613 LenScr=    26512384 LnRSAI=    16766328
 LnScr1=    25935360 LExtra=           0 Total=     80693290
 MaxDsk=          -1 SrtSym=           T ITran=            4
 JobTyp=0 Pass  1:  I=   1 to  12.
 (rs|ai) integrals will be sorted in core.
 Spin components of T(2) and E(2):
     alpha-alpha T2 =       0.2527461217D-01 E2=     -0.1155055891D+00
     alpha-beta  T2 =       0.1294937259D+00 E2=     -0.6444247949D+00
     beta-beta   T2 =       0.2527461217D-01 E2=     -0.1155055891D+00
 ANorm=    0.1086297818D+01
 E2 =    -0.8754359731D+00 EUMP2 =    -0.29981828401934D+03
 Keep R2 and R3 ints in memory in symmetry-blocked form, NReq=106598451.
 CIDS: In Core Option IDoMem=           1.
 Iterations=  50 Convergence= 0.100D-06
 Produce multiple copies of IABC intergrals
 Iteration Nr.   1
 **********************
 DD1Dir will call FoFMem   1 times, MxPair=       156
 NAB=    78 NAA=     0 NBB=     0.
 MP4(R+Q)=  0.10075040D-01
 E3=        0.23441861D-01        EUMP3=      -0.29979484216D+03
 E4(DQ)=   -0.58054371D-02        UMP4(DQ)=   -0.29980064760D+03
 E4(SDQ)=  -0.17506840D-01        UMP4(SDQ)=  -0.29981234900D+03
 DE(Corr)= -0.84103846     E(Corr)=     -299.78388650    
 NORM(A)=   0.10803929D+01
 Iteration Nr.   2
 **********************
 DD1Dir will call FoFMem   1 times, MxPair=       156
 NAB=    78 NAA=     0 NBB=     0.
 DE(Corr)= -0.86417647     E(CORR)=     -299.80702451     Delta=-2.31D-02
 NORM(A)=   0.10859727D+01
 Iteration Nr.   3
 **********************
 DD1Dir will call FoFMem   1 times, MxPair=       156
 NAB=    78 NAA=     0 NBB=     0.
 DE(Corr)= -0.86127423     E(CORR)=     -299.80412227     Delta= 2.90D-03
 NORM(A)=   0.10881692D+01
 Iteration Nr.   4
 **********************
 DD1Dir will call FoFMem   1 times, MxPair=       156
 NAB=    78 NAA=     0 NBB=     0.
 DE(Corr)= -0.86317378     E(CORR)=     -299.80602183     Delta=-1.90D-03
 NORM(A)=   0.10890173D+01
 Iteration Nr.   5
 **********************
 DD1Dir will call FoFMem   1 times, MxPair=       156
 NAB=    78 NAA=     0 NBB=     0.
 DE(Corr)= -0.86336795     E(CORR)=     -299.80621600     Delta=-1.94D-04
 NORM(A)=   0.10892076D+01
 Iteration Nr.   6
 **********************
 DD1Dir will call FoFMem   1 times, MxPair=       156
 NAB=    78 NAA=     0 NBB=     0.
 DE(Corr)= -0.86337659     E(CORR)=     -299.80622463     Delta=-8.63D-06
 NORM(A)=   0.10892655D+01
 Iteration Nr.   7
 **********************
 DD1Dir will call FoFMem   1 times, MxPair=       156
 NAB=    78 NAA=     0 NBB=     0.
 DE(Corr)= -0.86337437     E(CORR)=     -299.80622242     Delta= 2.22D-06
 NORM(A)=   0.10892726D+01
 Iteration Nr.   8
 **********************
 DD1Dir will call FoFMem   1 times, MxPair=       156
 NAB=    78 NAA=     0 NBB=     0.
 DE(Corr)= -0.86337868     E(CORR)=     -299.80622672     Delta=-4.31D-06
 NORM(A)=   0.10892759D+01
 Iteration Nr.   9
 **********************
 DD1Dir will call FoFMem   1 times, MxPair=       156
 NAB=    78 NAA=     0 NBB=     0.
 DE(Corr)= -0.86337385     E(CORR)=     -299.80622189     Delta= 4.83D-06
 NORM(A)=   0.10892776D+01
 Iteration Nr.  10
 **********************
 DD1Dir will call FoFMem   1 times, MxPair=       156
 NAB=    78 NAA=     0 NBB=     0.
 DE(Corr)= -0.86337570     E(CORR)=     -299.80622375     Delta=-1.86D-06
 NORM(A)=   0.10892773D+01
 Iteration Nr.  11
 **********************
 DD1Dir will call FoFMem   1 times, MxPair=       156
 NAB=    78 NAA=     0 NBB=     0.
 DE(Corr)= -0.86337502     E(CORR)=     -299.80622307     Delta= 6.80D-07
 NORM(A)=   0.10892771D+01
 Iteration Nr.  12
 **********************
 DD1Dir will call FoFMem   1 times, MxPair=       156
 NAB=    78 NAA=     0 NBB=     0.
 DE(Corr)= -0.86337483     E(CORR)=     -299.80622287     Delta= 1.97D-07
 NORM(A)=   0.10892768D+01
 Iteration Nr.  13
 **********************
 DD1Dir will call FoFMem   1 times, MxPair=       156
 NAB=    78 NAA=     0 NBB=     0.
 DE(Corr)= -0.86337491     E(CORR)=     -299.80622295     Delta=-7.96D-08
 NORM(A)=   0.10892766D+01
 Wavefunction amplitudes converged. E(Corr)=     -299.80622295    
 Largest amplitude= 3.68D-02
 Discarding MO integrals.

 **********************************************************************

            Population analysis using the SCF Density.

 **********************************************************************

 Orbital symmetries:
       Occupied  (B2) (A1) (A1) (A1) (B2) (A1) (A1) (B1) (A1) (A2)
                 (B2) (B2) (B2) (A1) (B1)
       Virtual   (A1) (B2) (A1) (B1) (A1) (B2) (A2) (B1) (B2) (A1)
                 (A1) (A1) (B2) (B1) (A1) (A1) (B2) (A1) (B1) (A1)
                 (A2) (B2) (B1) (A1) (A2) (A1) (B2) (B1) (A1) (A1)
                 (A2) (B2) (B1) (A1) (A2) (B2) (B2) (B1) (A1) (A1)
                 (B1) (B2) (A1) (B2) (A1) (B1) (A1) (A1) (A2) (B2)
                 (B2) (B2) (A1) (B1) (A1) (A2) (B2) (A2) (B2) (B1)
                 (A1) (A2) (B2) (B1) (A1) (A2) (A1) (B1) (B2) (A1)
                 (A2) (B2) (B1) (B2) (A1) (A2) (B1) (B2) (A1) (A1)
                 (B1) (A1) (B2) (A2) (B2) (A1) (B2) (B1) (A1) (B1)
                 (A1) (A1) (B1) (A1) (A1) (B2) (A1) (B1) (B1) (B2)
                 (A1) (A2) (B2) (A2) (B2) (B2) (A1) (B1) (A1) (A2)
                 (B2) (A2) (B2) (B1) (B2) (A1) (A2) (B1) (B2) (A1)
                 (B1) (A1) (B2) (A2) (B2) (A2) (B2) (B1) (A1) (B1)
                 (A1) (A2) (A1) (B1) (B2) (A1) (B1) (A1) (A1) (A2)
                 (B2) (A1) (B2) (A1) (B2) (A1)
 The electronic state is 1-A1.
 Alpha  occ. eigenvalues --  -25.87158 -25.87155 -25.74860  -1.17381  -1.12662
 Alpha  occ. eigenvalues --   -0.99086  -0.38301  -0.24525  -0.24495  -0.21879
 Alpha  occ. eigenvalues --   -0.21861  -0.19802  -0.09577  -0.09577  -0.09577
 Alpha virt. eigenvalues --    0.27933   0.38247   0.43585   0.43762   0.44640
 Alpha virt. eigenvalues --    0.51267   0.51599   0.52573   0.53605   0.53774
 Alpha virt. eigenvalues --    0.55880   0.59711   0.63080   0.70588   0.71111
 Alpha virt. eigenvalues --    0.80658   0.98926   1.00672   1.08684   1.08716
 Alpha virt. eigenvalues --    1.28595   1.28606   1.29330   1.29569   1.31271
 Alpha virt. eigenvalues --    1.31271   1.31420   1.31421   1.31705   1.36086
 Alpha virt. eigenvalues --    1.39744   1.39957   1.51170   1.51326   1.54240
 Alpha virt. eigenvalues --    1.54353   1.54499   1.55822   1.55826   1.56392
 Alpha virt. eigenvalues --    1.61072   1.61176   1.62326   1.66161   1.78268
 Alpha virt. eigenvalues --    2.08807   2.09017   2.14366   2.33901   2.34158
 Alpha virt. eigenvalues --    2.44043   2.93331   3.02354   3.19043   3.19054
 Alpha virt. eigenvalues --    3.20991   3.21079   3.24435   3.24438   3.30031
 Alpha virt. eigenvalues --    3.30031   3.31382   3.31382   3.34917   3.35060
 Alpha virt. eigenvalues --    3.36811   3.36811   3.36871   3.36876   3.37017
 Alpha virt. eigenvalues --    3.39477   3.39480   3.41635   3.41635   3.41696
 Alpha virt. eigenvalues --    3.41696   3.41733   3.41737   3.41750   3.48596
 Alpha virt. eigenvalues --    3.67808   3.67815   3.92164   3.92364   3.92480
 Alpha virt. eigenvalues --    3.98683   4.10063   4.28314   4.28425   4.57932
 Alpha virt. eigenvalues --    4.57934   4.81722   4.88219   4.88279   5.44367
 Alpha virt. eigenvalues --    5.71164   5.73836   5.74140   5.75735   5.75758
 Alpha virt. eigenvalues --    5.76851   5.84654   5.84736   6.44129   6.44179
 Alpha virt. eigenvalues --    7.55103   8.46254   9.22730   9.22730   9.23541
 Alpha virt. eigenvalues --    9.23541   9.25902   9.25903   9.35284   9.35284
 Alpha virt. eigenvalues --    9.35315   9.35315   9.35333   9.35336   9.35342
 Alpha virt. eigenvalues --    9.46428   9.46431   9.61924   9.63623   9.63665
 Alpha virt. eigenvalues --    9.72990   9.72991   9.74573   9.74652   9.78196
 Alpha virt. eigenvalues --    9.78197   9.83011   9.83011   9.83039   9.83042
 Alpha virt. eigenvalues --    9.83086   9.94168   9.94223  10.07172  10.13150
 Alpha virt. eigenvalues --   10.13187  10.47590  10.61082  11.06256  13.58750
 Alpha virt. eigenvalues --   15.47637
          Condensed to atoms (all electrons):
               1          2          3          4
     1  F   10.000440  -0.000058  -0.000130  -0.000058
     2  F   -0.000058   9.769293   0.094020  -0.106482
     3  H   -0.000130   0.094020   0.298349   0.094020
     4  F   -0.000058  -0.106482   0.094020   9.769293
 Mulliken charges:
               1
     1  F   -1.000194
     2  F   -0.756773
     3  H    0.513740
     4  F   -0.756773
 Sum of Mulliken charges =  -2.00000
 Mulliken charges with hydrogens summed into heavy atoms:
               1
     1  F   -1.000194
     2  F   -0.243033
     4  F   -0.756773
 Electronic spatial extent (au):  <R**2>=            993.2087
 Charge=             -2.0000 electrons
 Dipole moment (field-independent basis, Debye):
    X=              0.0000    Y=              0.0000    Z=            -10.2274  Tot=             10.2274
 Quadrupole moment (field-independent basis, Debye-Ang):
   XX=            -19.7602   YY=            -28.9635   ZZ=           -118.9939
   XY=             -0.0000   XZ=             -0.0000   YZ=              0.0000
 Traceless Quadrupole moment (field-independent basis, Debye-Ang):
   XX=             36.1457   YY=             26.9424   ZZ=            -63.0881
   XY=             -0.0000   XZ=             -0.0000   YZ=              0.0000
 Octapole moment (field-independent basis, Debye-Ang**2):
  XXX=              0.0000  YYY=              0.0000  ZZZ=           -308.6046  XYY=              0.0000
  XXY=              0.0000  XXZ=             -4.9330  XZZ=              0.0000  YZZ=             -0.0000
  YYZ=             13.0662  XYZ=              0.0000
 Hexadecapole moment (field-independent basis, Debye-Ang**3):
 XXXX=            -18.2922 YYYY=           -123.2177 ZZZZ=          -2441.9650 XXXY=             -0.0000
 XXXZ=             -0.0000 YYYX=             -0.0000 YYYZ=              0.0000 ZZZX=             -0.0000
 ZZZY=              0.0000 XXYY=            -22.1811 XXZZ=           -172.7715 YYZZ=           -223.9595
 XXYZ=             -0.0000 YYXZ=             -0.0000 ZZXY=             -0.0000
 N-N= 4.200985126709D+01 E-N=-8.156181030758D+02  KE= 2.988706599273D+02
 Symmetry A1   KE= 1.805403707273D+02
 Symmetry A2   KE= 6.152791448387D+00
 Symmetry B1   KE= 1.145331411002D+01
 Symmetry B2   KE= 1.007241836416D+02
 1\1\GINC-HELIOS\SP\RCCSD-FC\Aug-CC-pVTZ\F3H1(2-)\POHL\08-May-2025\0\\#
  CCSD/aug-cc-pVTZ SP\\Single-point energy of X- + Y- at fixed distance
  R\\-2,1\F,0,0.,0.,6.\F,0,-1.139,0.,0.\H,0,0.,0.,0.\F,0,1.139,0.,0.\\V
 ersion=EM64L-G16RevB.01\State=1-A1\HF=-298.942848\MP2=-299.818284\MP3=
 -299.7948422\MP4D=-299.8107226\MP4DQ=-299.8006476\MP4SDQ=-299.812349\C
 CSD=-299.806223\RMSD=6.415e-09\PG=C02V [C2(H1F1),SGV(F2)]\\@


 ALL OUR THINKING ABOUT NATURE MUST NECESSARILY MOVE IN CIRCLES OR SPIRALS;
 FOR WE CAN ONLY UNDERSTAND NATURE IF WE THINK ABOUT HER, AND WE CAN ONLY
 THINK BECAUSE OUR BRAIN IS BUILT IN ACCORDANCE WITH NATURE'S LAWS.

                                             -- TIMOTHY FERRIS, "GALAXIES"
 Job cpu time:       0 days  0 hours  5 minutes 11.8 seconds.
 Elapsed time:       0 days  0 hours  0 minutes 31.3 seconds.
 File lengths (MBytes):  RWF=    654 Int=      0 D2E=      0 Chk=      3 Scr=      1
 Normal termination of Gaussian 16 at Thu May  8 14:44:15 2025.
