 Entering Gaussian System, Link 0=g16
 Initial command:
 /opt/g16/l1.exe "/home/pohl/scratches/g16/Gau-1323495.inp" -scrdir="/home/pohl/scratches/g16/"
 Entering Link 1 = /opt/g16/l1.exe PID=   1323497.
  
 Copyright (c) 1988-2017, Gaussian, Inc.  All Rights Reserved.
  
 This is part of the Gaussian(R) 16 program.  It is based on
 the Gaussian(R) 09 system (copyright 2009, Gaussian, Inc.),
 the Gaussian(R) 03 system (copyright 2003, Gaussian, Inc.),
 the Gaussian(R) 98 system (copyright 1998, Gaussian, Inc.),
 the Gaussian(R) 94 system (copyright 1995, Gaussian, Inc.),
 the Gaussian 92(TM) system (copyright 1992, Gaussian, Inc.),
 the Gaussian 90(TM) system (copyright 1990, Gaussian, Inc.),
 the Gaussian 88(TM) system (copyright 1988, Gaussian, Inc.),
 the Gaussian 86(TM) system (copyright 1986, Carnegie Mellon
 University), and the Gaussian 82(TM) system (copyright 1983,
 Carnegie Mellon University). Gaussian is a federally registered
 trademark of Gaussian, Inc.
  
 This software contains proprietary and confidential information,
 including trade secrets, belonging to Gaussian, Inc.
  
 This software is provided under written license and may be
 used, copied, transmitted, or stored only in accord with that
 written license.
  
 The following legend is applicable only to US Government
 contracts under FAR:
  
                    RESTRICTED RIGHTS LEGEND
  
 Use, reproduction and disclosure by the US Government is
 subject to restrictions as set forth in subparagraphs (a)
 and (c) of the Commercial Computer Software - Restricted
 Rights clause in FAR 52.227-19.
  
 Gaussian, Inc.
 340 Quinnipiac St., Bldg. 40, Wallingford CT 06492
  
  
 ---------------------------------------------------------------
 Warning -- This program may not be used in any manner that
 competes with the business of Gaussian, Inc. or will provide
 assistance to any competitor of Gaussian, Inc.  The licensee
 of this program is prohibited from giving any competitor of
 Gaussian, Inc. access to this program.  By using this program,
 the user acknowledges that Gaussian, Inc. is engaged in the
 business of creating and licensing software in the field of
 computational chemistry and represents and warrants to the
 licensee that it is not a competitor of Gaussian, Inc. and that
 it will not use this program in any manner prohibited above.
 ---------------------------------------------------------------
  

 Cite this work as:
 Gaussian 16, Revision B.01,
 M. J. Frisch, G. W. Trucks, H. B. Schlegel, G. E. Scuseria, 
 M. A. Robb, J. R. Cheeseman, G. Scalmani, V. Barone, 
 G. A. Petersson, H. Nakatsuji, X. Li, M. Caricato, A. V. Marenich, 
 J. Bloino, B. G. Janesko, R. Gomperts, B. Mennucci, H. P. Hratchian, 
 J. V. Ortiz, A. F. Izmaylov, J. L. Sonnenberg, D. Williams-Young, 
 F. Ding, F. Lipparini, F. Egidi, J. Goings, B. Peng, A. Petrone, 
 T. Henderson, D. Ranasinghe, V. G. Zakrzewski, J. Gao, N. Rega, 
 G. Zheng, W. Liang, M. Hada, M. Ehara, K. Toyota, R. Fukuda, 
 J. Hasegawa, M. Ishida, T. Nakajima, Y. Honda, O. Kitao, H. Nakai, 
 T. Vreven, K. Throssell, J. A. Montgomery, Jr., J. E. Peralta, 
 F. Ogliaro, M. J. Bearpark, J. J. Heyd, E. N. Brothers, K. N. Kudin, 
 V. N. Staroverov, T. A. Keith, R. Kobayashi, J. Normand, 
 K. Raghavachari, A. P. Rendell, J. C. Burant, S. S. Iyengar, 
 J. Tomasi, M. Cossi, J. M. Millam, M. Klene, C. Adamo, R. Cammi, 
 J. W. Ochterski, R. L. Martin, K. Morokuma, O. Farkas, 
 J. B. Foresman, and D. J. Fox, Gaussian, Inc., Wallingford CT, 2016.
 
 ******************************************
 Gaussian 16:  EM64L-G16RevB.01 20-Dec-2017
                 8-May-2025 
 ******************************************
 %mem=30GB
 %nprocshared=10
 Will use up to   10 processors via shared memory.
 ---------------------
 # CCSD/aug-cc-pVTZ SP
 ---------------------
 1/38=1,172=1/1;
 2/12=2,17=6,18=5,40=1/2;
 3/5=16,6=1,7=10,11=9,25=1,30=1/1,2,3;
 4//1;
 5/5=2,38=5/2;
 8/6=4,9=120000,10=1/1,4;
 9/5=7/13;
 6/7=2,8=2,9=2,10=2/1;
 99/5=1,9=1/99;
 --------------------------------------------------
 Single-point energy of X- + Y- at fixed distance R
 --------------------------------------------------
 Symbolic Z-matrix:
 Charge = -2 Multiplicity = 1
 F                     0.        0.        7. 
 F                    -1.139     0.        0. 
 H                     0.        0.        0. 
 F                     1.139     0.        0. 
 
                          Input orientation:                          
 ---------------------------------------------------------------------
 Center     Atomic      Atomic             Coordinates (Angstroms)
 Number     Number       Type             X           Y           Z
 ---------------------------------------------------------------------
      1          9           0        0.000000    0.000000    7.000000
      2          9           0       -1.139000    0.000000    0.000000
      3          1           0        0.000000    0.000000    0.000000
      4          9           0        1.139000    0.000000    0.000000
 ---------------------------------------------------------------------
                    Distance matrix (angstroms):
                    1          2          3          4
     1  F    0.000000
     2  F    7.092060   0.000000
     3  H    7.000000   1.139000   0.000000
     4  F    7.092060   2.278000   1.139000   0.000000
 Stoichiometry    F3H(2-)
 Framework group  C2V[C2(HF),SGV(F2)]
 Deg. of freedom     3
 Full point group                 C2V     NOp   4
 Largest Abelian subgroup         C2V     NOp   4
 Largest concise Abelian subgroup C2      NOp   2
                         Standard orientation:                         
 ---------------------------------------------------------------------
 Center     Atomic      Atomic             Coordinates (Angstroms)
 Number     Number       Type             X           Y           Z
 ---------------------------------------------------------------------
      1          9           0        0.000000    0.000000    4.750000
      2          9           0        0.000000    1.139000   -2.250000
      3          1           0        0.000000    0.000000   -2.250000
      4          9           0       -0.000000   -1.139000   -2.250000
 ---------------------------------------------------------------------
 Rotational constants (GHZ):          10.2523318           0.8073067           0.7483767
 Standard basis: Aug-CC-pVTZ (5D, 7F)
 There are    74 symmetry adapted cartesian basis functions of A1  symmetry.
 There are    25 symmetry adapted cartesian basis functions of A2  symmetry.
 There are    36 symmetry adapted cartesian basis functions of B1  symmetry.
 There are    55 symmetry adapted cartesian basis functions of B2  symmetry.
 There are    60 symmetry adapted basis functions of A1  symmetry.
 There are    23 symmetry adapted basis functions of A2  symmetry.
 There are    32 symmetry adapted basis functions of B1  symmetry.
 There are    46 symmetry adapted basis functions of B2  symmetry.
   161 basis functions,   243 primitive gaussians,   190 cartesian basis functions
    15 alpha electrons       15 beta electrons
       nuclear repulsion energy        39.9470595966 Hartrees.
 NAtoms=    4 NActive=    4 NUniq=    3 SFac= 1.78D+00 NAtFMM=   60 NAOKFM=F Big=F
 Integral buffers will be    131072 words long.
 Raffenetti 1 integral format.
 Two-electron integral symmetry is turned on.
 One-electron integrals computed using PRISM.
 NBasis=   161 RedAO= T EigKep=  2.93D-04  NBF=    60    23    32    46
 NBsUse=   161 1.00D-06 EigRej= -1.00D+00 NBFU=    60    23    32    46
 ExpMin= 2.53D-02 ExpMax= 1.95D+04 ExpMxC= 6.65D+02 IAcc=3 IRadAn=         5 AccDes= 0.00D+00
 Harris functional with IExCor=  205 and IRadAn=       5 diagonalized for initial guess.
 HarFok:  IExCor=  205 AccDes= 0.00D+00 IRadAn=         5 IDoV= 1 UseB2=F ITyADJ=14
 ICtDFT=  3500011 ScaDFX=  1.000000  1.000000  1.000000  1.000000
 FoFCou: FMM=F IPFlag=           0 FMFlag=      100000 FMFlg1=           0
         NFxFlg=           0 DoJE=T BraDBF=F KetDBF=T FulRan=T
         wScrn=  0.000000 ICntrl=       500 IOpCl=  0 I1Cent=   200000004 NGrid=           0
         NMat0=    1 NMatS0=      1 NMatT0=    0 NMatD0=    1 NMtDS0=    0 NMtDT0=    0
 Petite list used in FoFCou.
 Initial guess orbital symmetries:
       Occupied  (A1) (B2) (A1) (A1) (B2) (A1) (A1) (A1) (B1) (B2)
                 (B2) (A2) (A1) (B1) (B2)
       Virtual   (A1) (B2) (A1) (A1) (B1) (A1) (A1) (B2) (B1) (A1)
                 (A2) (B2) (B2) (B1) (A1) (A1) (A1) (B2) (B1) (A1)
                 (B2) (B1) (A2) (A1) (A1) (B2) (A2) (A1) (B1) (B2)
                 (A2) (A1) (A1) (B1) (B1) (B2) (A1) (A2) (B2) (B2)
                 (A1) (B1) (A1) (B2) (A1) (A1) (B1) (A1) (B2) (A2)
                 (B2) (B2) (A1) (B1) (A1) (A2) (B2) (B2) (A2) (B2)
                 (B1) (A2) (A1) (A1) (B1) (A1) (B1) (A1) (A2) (B2)
                 (A2) (B2) (B1) (B1) (B2) (A1) (A1) (A2) (B2) (A1)
                 (B1) (A1) (B2) (A2) (B2) (A1) (B2) (B1) (A1) (B1)
                 (A1) (A1) (B1) (A1) (A1) (B1) (B2) (A1) (B1) (A1)
                 (B2) (A2) (B2) (A2) (B2) (B2) (A1) (B1) (A1) (A2)
                 (B2) (A2) (B2) (B1) (B1) (B2) (A1) (A1) (A2) (B2)
                 (B1) (A1) (B2) (B2) (B1) (A1) (A2) (A1) (A2) (B2)
                 (B2) (A2) (A1) (B1) (B1) (A1) (B1) (A1) (A1) (A2)
                 (B2) (A1) (B2) (A1) (B2) (A1)
 The electronic state of the initial guess is 1-A1.
 Keep R1 ints in memory in symmetry-blocked form, NReq=106592091.
 Requested convergence on RMS density matrix=1.00D-08 within 128 cycles.
 Requested convergence on MAX density matrix=1.00D-06.
 Requested convergence on             energy=1.00D-06.
 No special actions if energy rises.
 SCF Done:  E(RHF) =  -298.954387848     A.U. after   10 cycles
            NFock= 10  Conv=0.62D-08     -V/T= 2.0003
 ExpMin= 2.53D-02 ExpMax= 1.95D+04 ExpMxC= 6.65D+02 IAcc=3 IRadAn=         5 AccDes= 0.00D+00
 HarFok:  IExCor=  205 AccDes= 0.00D+00 IRadAn=         5 IDoV=-2 UseB2=F ITyADJ=14
 ICtDFT= 12500011 ScaDFX=  1.000000  1.000000  1.000000  1.000000
 Range of M.O.s used for correlation:     4   161
 NBasis=   161 NAE=    15 NBE=    15 NFC=     3 NFV=     0
 NROrb=    158 NOA=    12 NOB=    12 NVA=   146 NVB=   146

 **** Warning!!: The largest alpha MO coefficient is  0.21559938D+02

 Semi-Direct transformation.
 ModeAB=           4 MOrb=            12 LenV=    4025780620
 LASXX=      5679395 LTotXX=     5679395 LenRXX=    11479218
 LTotAB=     5799823 MaxLAS=    14912040 LenRXY=           0
 NonZer=    17158613 LenScr=    26512384 LnRSAI=    14912040
 LnScr1=    23132160 LExtra=           0 Total=     76035802
 MaxDsk=          -1 SrtSym=           T ITran=            4
 JobTyp=0 Pass  1:  I=   1 to  12.
 (rs|ai) integrals will be sorted in core.
 Spin components of T(2) and E(2):
     alpha-alpha T2 =       0.2526983414D-01 E2=     -0.1154989846D+00
     alpha-beta  T2 =       0.1294717117D+00 E2=     -0.6443986720D+00
     beta-beta   T2 =       0.2526983414D-01 E2=     -0.1154989846D+00
 ANorm=    0.1086283287D+01
 E2 =    -0.8753966412D+00 EUMP2 =    -0.29982978448951D+03
 Keep R2 and R3 ints in memory in symmetry-blocked form, NReq=106598451.
 CIDS: In Core Option IDoMem=           1.
 Iterations=  50 Convergence= 0.100D-06
 Produce multiple copies of IABC intergrals
 Iteration Nr.   1
 **********************
 DD1Dir will call FoFMem   1 times, MxPair=       156
 NAB=    78 NAA=     0 NBB=     0.
 MP4(R+Q)=  0.10074598D-01
 E3=        0.23427431D-01        EUMP3=      -0.29980635706D+03
 E4(DQ)=   -0.58016483D-02        UMP4(DQ)=   -0.29981215871D+03
 E4(SDQ)=  -0.17495052D-01        UMP4(SDQ)=  -0.29982385211D+03
 DE(Corr)= -0.84101531     E(Corr)=     -299.79540316    
 NORM(A)=   0.10803762D+01
 Iteration Nr.   2
 **********************
 DD1Dir will call FoFMem   1 times, MxPair=       156
 NAB=    78 NAA=     0 NBB=     0.
 DE(Corr)= -0.86414392     E(CORR)=     -299.81853177     Delta=-2.31D-02
 NORM(A)=   0.10859535D+01
 Iteration Nr.   3
 **********************
 DD1Dir will call FoFMem   1 times, MxPair=       156
 NAB=    78 NAA=     0 NBB=     0.
 DE(Corr)= -0.86124429     E(CORR)=     -299.81563214     Delta= 2.90D-03
 NORM(A)=   0.10881427D+01
 Iteration Nr.   4
 **********************
 DD1Dir will call FoFMem   1 times, MxPair=       156
 NAB=    78 NAA=     0 NBB=     0.
 DE(Corr)= -0.86314198     E(CORR)=     -299.81752983     Delta=-1.90D-03
 NORM(A)=   0.10889876D+01
 Iteration Nr.   5
 **********************
 DD1Dir will call FoFMem   1 times, MxPair=       156
 NAB=    78 NAA=     0 NBB=     0.
 DE(Corr)= -0.86333548     E(CORR)=     -299.81772333     Delta=-1.93D-04
 NORM(A)=   0.10891748D+01
 Iteration Nr.   6
 **********************
 DD1Dir will call FoFMem   1 times, MxPair=       156
 NAB=    78 NAA=     0 NBB=     0.
 DE(Corr)= -0.86334389     E(CORR)=     -299.81773174     Delta=-8.40D-06
 NORM(A)=   0.10892308D+01
 Iteration Nr.   7
 **********************
 DD1Dir will call FoFMem   1 times, MxPair=       156
 NAB=    78 NAA=     0 NBB=     0.
 DE(Corr)= -0.86334169     E(CORR)=     -299.81772954     Delta= 2.20D-06
 NORM(A)=   0.10892377D+01
 Iteration Nr.   8
 **********************
 DD1Dir will call FoFMem   1 times, MxPair=       156
 NAB=    78 NAA=     0 NBB=     0.
 DE(Corr)= -0.86334603     E(CORR)=     -299.81773388     Delta=-4.34D-06
 NORM(A)=   0.10892410D+01
 Iteration Nr.   9
 **********************
 DD1Dir will call FoFMem   1 times, MxPair=       156
 NAB=    78 NAA=     0 NBB=     0.
 DE(Corr)= -0.86334118     E(CORR)=     -299.81772903     Delta= 4.85D-06
 NORM(A)=   0.10892425D+01
 Iteration Nr.  10
 **********************
 DD1Dir will call FoFMem   1 times, MxPair=       156
 NAB=    78 NAA=     0 NBB=     0.
 DE(Corr)= -0.86334300     E(CORR)=     -299.81773085     Delta=-1.82D-06
 NORM(A)=   0.10892423D+01
 Iteration Nr.  11
 **********************
 DD1Dir will call FoFMem   1 times, MxPair=       156
 NAB=    78 NAA=     0 NBB=     0.
 DE(Corr)= -0.86334236     E(CORR)=     -299.81773021     Delta= 6.47D-07
 NORM(A)=   0.10892421D+01
 Iteration Nr.  12
 **********************
 DD1Dir will call FoFMem   1 times, MxPair=       156
 NAB=    78 NAA=     0 NBB=     0.
 DE(Corr)= -0.86334211     E(CORR)=     -299.81772996     Delta= 2.49D-07
 NORM(A)=   0.10892419D+01
 Iteration Nr.  13
 **********************
 DD1Dir will call FoFMem   1 times, MxPair=       156
 NAB=    78 NAA=     0 NBB=     0.
 DE(Corr)= -0.86334221     E(CORR)=     -299.81773005     Delta=-9.69D-08
 NORM(A)=   0.10892417D+01
 Wavefunction amplitudes converged. E(Corr)=     -299.81773005    
 Largest amplitude= 3.68D-02
 Discarding MO integrals.

 **********************************************************************

            Population analysis using the SCF Density.

 **********************************************************************

 Orbital symmetries:
       Occupied  (B2) (A1) (A1) (A1) (B2) (A1) (A1) (B1) (A1) (A2)
                 (B2) (B2) (A1) (B2) (B1)
       Virtual   (A1) (B2) (A1) (B1) (A1) (A2) (B2) (B1) (B2) (A1)
                 (A1) (A1) (B2) (B1) (A1) (A1) (B2) (A1) (B1) (A1)
                 (A2) (B2) (B1) (A1) (A1) (A2) (B1) (B2) (A1) (A1)
                 (A2) (B2) (B1) (A1) (A2) (B2) (B2) (B1) (A1) (A1)
                 (B1) (B2) (A1) (B2) (A1) (B1) (A1) (A1) (A2) (B2)
                 (B2) (B2) (A1) (B1) (A1) (A2) (B2) (A2) (B2) (B1)
                 (A1) (A2) (B2) (B1) (A1) (A1) (A2) (B1) (B2) (A1)
                 (A2) (B2) (B1) (B2) (A1) (A2) (B1) (B2) (A1) (A1)
                 (B1) (A1) (B2) (A2) (B2) (A1) (B2) (B1) (A1) (B1)
                 (A1) (A1) (B1) (A1) (A1) (B2) (B1) (A1) (B1) (B2)
                 (A1) (A2) (B2) (A2) (B2) (B2) (A1) (B1) (A1) (A2)
                 (B2) (A2) (B2) (B1) (B2) (A1) (A2) (B1) (B2) (A1)
                 (B1) (A1) (B2) (A2) (B2) (A2) (B2) (B1) (A1) (B1)
                 (A1) (A1) (A2) (B1) (B2) (A1) (B1) (A1) (A1) (A2)
                 (B2) (A1) (B2) (A1) (B2) (A1)
 The electronic state is 1-A1.
 Alpha  occ. eigenvalues --  -25.88325 -25.88323 -25.75999  -1.18555  -1.13831
 Alpha  occ. eigenvalues --   -1.00229  -0.39472  -0.25694  -0.25675  -0.23045
 Alpha  occ. eigenvalues --   -0.23034  -0.20964  -0.10721  -0.10721  -0.10720
 Alpha virt. eigenvalues --    0.26939   0.37388   0.42674   0.42743   0.43537
 Alpha virt. eigenvalues --    0.50570   0.50790   0.51478   0.51702   0.51929
 Alpha virt. eigenvalues --    0.54711   0.57268   0.61943   0.69458   0.69810
 Alpha virt. eigenvalues --    0.79429   0.97792   0.99412   1.07454   1.07462
 Alpha virt. eigenvalues --    1.27413   1.27418   1.28218   1.28389   1.30158
 Alpha virt. eigenvalues --    1.30158   1.30257   1.30261   1.30310   1.34854
 Alpha virt. eigenvalues --    1.38655   1.38782   1.50022   1.50166   1.53068
 Alpha virt. eigenvalues --    1.53190   1.53304   1.54625   1.54629   1.55173
 Alpha virt. eigenvalues --    1.59936   1.59948   1.60392   1.64991   1.76914
 Alpha virt. eigenvalues --    2.07654   2.07787   2.12670   2.32767   2.32931
 Alpha virt. eigenvalues --    2.42851   2.92166   3.01163   3.17858   3.17860
 Alpha virt. eigenvalues --    3.19829   3.19884   3.23255   3.23256   3.28847
 Alpha virt. eigenvalues --    3.28847   3.30198   3.30198   3.33767   3.33844
 Alpha virt. eigenvalues --    3.35681   3.35681   3.35720   3.35722   3.35749
 Alpha virt. eigenvalues --    3.38309   3.38310   3.40509   3.40509   3.40550
 Alpha virt. eigenvalues --    3.40550   3.40574   3.40576   3.40584   3.47440
 Alpha virt. eigenvalues --    3.66632   3.66634   3.91033   3.91225   3.91291
 Alpha virt. eigenvalues --    3.97521   4.08898   4.27158   4.27224   4.56741
 Alpha virt. eigenvalues --    4.56742   4.80352   4.87047   4.87085   5.43181
 Alpha virt. eigenvalues --    5.69988   5.72980   5.73001   5.74587   5.74590
 Alpha virt. eigenvalues --    5.74852   5.83496   5.83546   6.42959   6.42987
 Alpha virt. eigenvalues --    7.53931   8.45082   9.21555   9.21556   9.22367
 Alpha virt. eigenvalues --    9.22367   9.24732   9.24733   9.34151   9.34151
 Alpha virt. eigenvalues --    9.34172   9.34172   9.34185   9.34186   9.34190
 Alpha virt. eigenvalues --    9.45256   9.45257   9.60751   9.62460   9.62486
 Alpha virt. eigenvalues --    9.71820   9.71820   9.73420   9.73454   9.77028
 Alpha virt. eigenvalues --    9.77028   9.81875   9.81875   9.81894   9.81895
 Alpha virt. eigenvalues --    9.81908   9.93001   9.93025  10.05972  10.11991
 Alpha virt. eigenvalues --   10.12011  10.46415  10.59920  11.04186  13.57590
 Alpha virt. eigenvalues --   15.46471
          Condensed to atoms (all electrons):
               1          2          3          4
     1  F   10.000054   0.000001  -0.000029   0.000001
     2  F    0.000001   9.767009   0.093711  -0.104746
     3  H   -0.000029   0.093711   0.300630   0.093711
     4  F    0.000001  -0.104746   0.093711   9.767009
 Mulliken charges:
               1
     1  F   -1.000026
     2  F   -0.755975
     3  H    0.511976
     4  F   -0.755975
 Sum of Mulliken charges =  -2.00000
 Mulliken charges with hydrogens summed into heavy atoms:
               1
     1  F   -1.000026
     2  F   -0.243999
     4  F   -0.755975
 Electronic spatial extent (au):  <R**2>=           1302.6977
 Charge=             -2.0000 electrons
 Dipole moment (field-independent basis, Debye):
    X=              0.0000    Y=              0.0000    Z=            -11.9585  Tot=             11.9585
 Quadrupole moment (field-independent basis, Debye-Ang):
   XX=            -19.7512   YY=            -28.9259   ZZ=           -153.9736
   XY=             -0.0000   XZ=             -0.0000   YZ=              0.0000
 Traceless Quadrupole moment (field-independent basis, Debye-Ang):
   XX=             47.7990   YY=             38.6243   ZZ=            -86.4233
   XY=             -0.0000   XZ=             -0.0000   YZ=              0.0000
 Octapole moment (field-independent basis, Debye-Ang**2):
  XXX=              0.0000  YYY=              0.0000  ZZZ=           -481.5122  XYY=              0.0000
  XXY=              0.0000  XXZ=             -5.7594  XZZ=              0.0000  YZZ=              0.0000
  YYZ=             15.0709  XYZ=              0.0000
 Hexadecapole moment (field-independent basis, Debye-Ang**3):
 XXXX=            -18.2548 YYYY=           -122.9799 ZZZZ=          -3989.5181 XXXY=             -0.0000
 XXXZ=             -0.0000 YYYX=             -0.0000 YYYZ=             -0.0000 ZZZX=             -0.0000
 ZZZY=              0.0000 XXYY=            -22.1471 XXZZ=           -232.4050 YYZZ=           -295.6974
 XXYZ=             -0.0000 YYXZ=             -0.0000 ZZXY=             -0.0000
 N-N= 3.994705959656D+01 E-N=-8.111682345122D+02  KE= 2.988714978935D+02
 Symmetry A1   KE= 1.805345496452D+02
 Symmetry A2   KE= 6.154235407504D+00
 Symmetry B1   KE= 1.145640419845D+01
 Symmetry B2   KE= 1.007263086423D+02
 1\1\GINC-HELIOS\SP\RCCSD-FC\Aug-CC-pVTZ\F3H1(2-)\POHL\08-May-2025\0\\#
  CCSD/aug-cc-pVTZ SP\\Single-point energy of X- + Y- at fixed distance
  R\\-2,1\F,0,0.,0.,7.\F,0,-1.139,0.,0.\H,0,0.,0.,0.\F,0,1.139,0.,0.\\V
 ersion=EM64L-G16RevB.01\State=1-A1\HF=-298.9543878\MP2=-299.8297845\MP
 3=-299.8063571\MP4D=-299.8222333\MP4DQ=-299.8121587\MP4SDQ=-299.823852
 1\CCSD=-299.8177301\RMSD=6.161e-09\PG=C02V [C2(H1F1),SGV(F2)]\\@


 It takes a long time to grow an old friend.
                            -- John Leonard
 Job cpu time:       0 days  0 hours  4 minutes 22.3 seconds.
 Elapsed time:       0 days  0 hours  0 minutes 26.3 seconds.
 File lengths (MBytes):  RWF=    618 Int=      0 D2E=      0 Chk=      3 Scr=      1
 Normal termination of Gaussian 16 at Thu May  8 14:44:42 2025.
