 Entering Gaussian System, Link 0=g16
 Initial command:
 /opt/g16/l1.exe "/home/pohl/scratches/g16/Gau-1323622.inp" -scrdir="/home/pohl/scratches/g16/"
 Entering Link 1 = /opt/g16/l1.exe PID=   1323624.
  
 Copyright (c) 1988-2017, Gaussian, Inc.  All Rights Reserved.
  
 This is part of the Gaussian(R) 16 program.  It is based on
 the Gaussian(R) 09 system (copyright 2009, Gaussian, Inc.),
 the Gaussian(R) 03 system (copyright 2003, Gaussian, Inc.),
 the Gaussian(R) 98 system (copyright 1998, Gaussian, Inc.),
 the Gaussian(R) 94 system (copyright 1995, Gaussian, Inc.),
 the Gaussian 92(TM) system (copyright 1992, Gaussian, Inc.),
 the Gaussian 90(TM) system (copyright 1990, Gaussian, Inc.),
 the Gaussian 88(TM) system (copyright 1988, Gaussian, Inc.),
 the Gaussian 86(TM) system (copyright 1986, Carnegie Mellon
 University), and the Gaussian 82(TM) system (copyright 1983,
 Carnegie Mellon University). Gaussian is a federally registered
 trademark of Gaussian, Inc.
  
 This software contains proprietary and confidential information,
 including trade secrets, belonging to Gaussian, Inc.
  
 This software is provided under written license and may be
 used, copied, transmitted, or stored only in accord with that
 written license.
  
 The following legend is applicable only to US Government
 contracts under FAR:
  
                    RESTRICTED RIGHTS LEGEND
  
 Use, reproduction and disclosure by the US Government is
 subject to restrictions as set forth in subparagraphs (a)
 and (c) of the Commercial Computer Software - Restricted
 Rights clause in FAR 52.227-19.
  
 Gaussian, Inc.
 340 Quinnipiac St., Bldg. 40, Wallingford CT 06492
  
  
 ---------------------------------------------------------------
 Warning -- This program may not be used in any manner that
 competes with the business of Gaussian, Inc. or will provide
 assistance to any competitor of Gaussian, Inc.  The licensee
 of this program is prohibited from giving any competitor of
 Gaussian, Inc. access to this program.  By using this program,
 the user acknowledges that Gaussian, Inc. is engaged in the
 business of creating and licensing software in the field of
 computational chemistry and represents and warrants to the
 licensee that it is not a competitor of Gaussian, Inc. and that
 it will not use this program in any manner prohibited above.
 ---------------------------------------------------------------
  

 Cite this work as:
 Gaussian 16, Revision B.01,
 M. J. Frisch, G. W. Trucks, H. B. Schlegel, G. E. Scuseria, 
 M. A. Robb, J. R. Cheeseman, G. Scalmani, V. Barone, 
 G. A. Petersson, H. Nakatsuji, X. Li, M. Caricato, A. V. Marenich, 
 J. Bloino, B. G. Janesko, R. Gomperts, B. Mennucci, H. P. Hratchian, 
 J. V. Ortiz, A. F. Izmaylov, J. L. Sonnenberg, D. Williams-Young, 
 F. Ding, F. Lipparini, F. Egidi, J. Goings, B. Peng, A. Petrone, 
 T. Henderson, D. Ranasinghe, V. G. Zakrzewski, J. Gao, N. Rega, 
 G. Zheng, W. Liang, M. Hada, M. Ehara, K. Toyota, R. Fukuda, 
 J. Hasegawa, M. Ishida, T. Nakajima, Y. Honda, O. Kitao, H. Nakai, 
 T. Vreven, K. Throssell, J. A. Montgomery, Jr., J. E. Peralta, 
 F. Ogliaro, M. J. Bearpark, J. J. Heyd, E. N. Brothers, K. N. Kudin, 
 V. N. Staroverov, T. A. Keith, R. Kobayashi, J. Normand, 
 K. Raghavachari, A. P. Rendell, J. C. Burant, S. S. Iyengar, 
 J. Tomasi, M. Cossi, J. M. Millam, M. Klene, C. Adamo, R. Cammi, 
 J. W. Ochterski, R. L. Martin, K. Morokuma, O. Farkas, 
 J. B. Foresman, and D. J. Fox, Gaussian, Inc., Wallingford CT, 2016.
 
 ******************************************
 Gaussian 16:  EM64L-G16RevB.01 20-Dec-2017
                 8-May-2025 
 ******************************************
 %mem=30GB
 %nprocshared=10
 Will use up to   10 processors via shared memory.
 ---------------------
 # CCSD/aug-cc-pVTZ SP
 ---------------------
 1/38=1,172=1/1;
 2/12=2,17=6,18=5,40=1/2;
 3/5=16,6=1,7=10,11=9,25=1,30=1/1,2,3;
 4//1;
 5/5=2,38=5/2;
 8/6=4,9=120000,10=1/1,4;
 9/5=7/13;
 6/7=2,8=2,9=2,10=2/1;
 99/5=1,9=1/99;
 --------------------------------------------------
 Single-point energy of X- + Y- at fixed distance R
 --------------------------------------------------
 Symbolic Z-matrix:
 Charge = -2 Multiplicity = 1
 F                     0.        0.        9.4 
 F                    -1.139     0.        0. 
 H                     0.        0.        0. 
 F                     1.139     0.        0. 
 
                          Input orientation:                          
 ---------------------------------------------------------------------
 Center     Atomic      Atomic             Coordinates (Angstroms)
 Number     Number       Type             X           Y           Z
 ---------------------------------------------------------------------
      1          9           0        0.000000    0.000000    9.400000
      2          9           0       -1.139000    0.000000    0.000000
      3          1           0        0.000000    0.000000    0.000000
      4          9           0        1.139000    0.000000    0.000000
 ---------------------------------------------------------------------
                    Distance matrix (angstroms):
                    1          2          3          4
     1  F    0.000000
     2  F    9.468755   0.000000
     3  H    9.400000   1.139000   0.000000
     4  F    9.468755   2.278000   1.139000   0.000000
 Stoichiometry    F3H(2-)
 Framework group  C2V[C2(HF),SGV(F2)]
 Deg. of freedom     3
 Full point group                 C2V     NOp   4
 Largest Abelian subgroup         C2V     NOp   4
 Largest concise Abelian subgroup C2      NOp   2
                         Standard orientation:                         
 ---------------------------------------------------------------------
 Center     Atomic      Atomic             Coordinates (Angstroms)
 Number     Number       Type             X           Y           Z
 ---------------------------------------------------------------------
      1          9           0        0.000000   -0.000000    6.378571
      2          9           0        0.000000    1.139000   -3.021429
      3          1           0        0.000000    0.000000   -3.021429
      4          9           0       -0.000000   -1.139000   -3.021429
 ---------------------------------------------------------------------
 Rotational constants (GHZ):          10.2523318           0.4476916           0.4289601
 Standard basis: Aug-CC-pVTZ (5D, 7F)
 There are    74 symmetry adapted cartesian basis functions of A1  symmetry.
 There are    25 symmetry adapted cartesian basis functions of A2  symmetry.
 There are    36 symmetry adapted cartesian basis functions of B1  symmetry.
 There are    55 symmetry adapted cartesian basis functions of B2  symmetry.
 There are    60 symmetry adapted basis functions of A1  symmetry.
 There are    23 symmetry adapted basis functions of A2  symmetry.
 There are    32 symmetry adapted basis functions of B1  symmetry.
 There are    46 symmetry adapted basis functions of B2  symmetry.
   161 basis functions,   243 primitive gaussians,   190 cartesian basis functions
    15 alpha electrons       15 beta electrons
       nuclear repulsion energy        36.7392875778 Hartrees.
 NAtoms=    4 NActive=    4 NUniq=    3 SFac= 1.78D+00 NAtFMM=   60 NAOKFM=F Big=F
 Integral buffers will be    131072 words long.
 Raffenetti 1 integral format.
 Two-electron integral symmetry is turned on.
 One-electron integrals computed using PRISM.
 NBasis=   161 RedAO= T EigKep=  2.93D-04  NBF=    60    23    32    46
 NBsUse=   161 1.00D-06 EigRej= -1.00D+00 NBFU=    60    23    32    46
 ExpMin= 2.53D-02 ExpMax= 1.95D+04 ExpMxC= 6.65D+02 IAcc=3 IRadAn=         5 AccDes= 0.00D+00
 Harris functional with IExCor=  205 and IRadAn=       5 diagonalized for initial guess.
 HarFok:  IExCor=  205 AccDes= 0.00D+00 IRadAn=         5 IDoV= 1 UseB2=F ITyADJ=14
 ICtDFT=  3500011 ScaDFX=  1.000000  1.000000  1.000000  1.000000
 FoFCou: FMM=F IPFlag=           0 FMFlag=      100000 FMFlg1=           0
         NFxFlg=           0 DoJE=T BraDBF=F KetDBF=T FulRan=T
         wScrn=  0.000000 ICntrl=       500 IOpCl=  0 I1Cent=   200000004 NGrid=           0
         NMat0=    1 NMatS0=      1 NMatT0=    0 NMatD0=    1 NMtDS0=    0 NMtDT0=    0
 Petite list used in FoFCou.
 Initial guess orbital symmetries:
       Occupied  (A1) (B2) (A1) (A1) (B2) (A1) (A1) (A1) (B1) (B2)
                 (B2) (A2) (B1) (B2) (A1)
       Virtual   (A1) (B2) (A1) (A1) (B1) (A1) (A1) (B2) (B1) (A1)
                 (A2) (B2) (B2) (B1) (A1) (A1) (A1) (B2) (B1) (A1)
                 (B1) (A2) (A1) (B2) (A1) (B2) (A2) (A1) (B1) (B2)
                 (A2) (A1) (A1) (B1) (B1) (B2) (A1) (A2) (B2) (B2)
                 (A1) (A1) (B1) (B2) (A1) (A1) (B1) (A1) (B2) (A2)
                 (B2) (B2) (A1) (A1) (B1) (A2) (B2) (B2) (A2) (B1)
                 (A2) (A1) (B2) (A1) (B1) (A1) (B1) (A1) (A2) (B2)
                 (B1) (A2) (A1) (B2) (B1) (B2) (A1) (A2) (B2) (A1)
                 (B1) (A1) (B2) (A2) (B2) (A1) (B2) (B1) (A1) (B1)
                 (A1) (A1) (B1) (A1) (A1) (B1) (B2) (A1) (B1) (A1)
                 (B2) (A2) (B2) (A2) (B2) (B2) (A1) (B1) (A1) (A2)
                 (B2) (B1) (A2) (A1) (B2) (B1) (B2) (A1) (A2) (B2)
                 (B1) (A1) (B2) (A2) (A1) (B1) (B2) (A1) (A2) (B2)
                 (B2) (A2) (A1) (B1) (B1) (A1) (B1) (A1) (A1) (A2)
                 (B2) (A1) (B2) (A1) (B2) (A1)
 The electronic state of the initial guess is 1-A1.
 Keep R1 ints in memory in symmetry-blocked form, NReq=106592091.
 Requested convergence on RMS density matrix=1.00D-08 within 128 cycles.
 Requested convergence on MAX density matrix=1.00D-06.
 Requested convergence on             energy=1.00D-06.
 No special actions if energy rises.
 SCF Done:  E(RHF) =  -298.972660724     A.U. after   10 cycles
            NFock= 10  Conv=0.56D-08     -V/T= 2.0003
 ExpMin= 2.53D-02 ExpMax= 1.95D+04 ExpMxC= 6.65D+02 IAcc=3 IRadAn=         5 AccDes= 0.00D+00
 HarFok:  IExCor=  205 AccDes= 0.00D+00 IRadAn=         5 IDoV=-2 UseB2=F ITyADJ=14
 ICtDFT= 12500011 ScaDFX=  1.000000  1.000000  1.000000  1.000000
 Range of M.O.s used for correlation:     4   161
 NBasis=   161 NAE=    15 NBE=    15 NFC=     3 NFV=     0
 NROrb=    158 NOA=    12 NOB=    12 NVA=   146 NVB=   146

 **** Warning!!: The largest alpha MO coefficient is  0.21641561D+02

 Semi-Direct transformation.
 ModeAB=           4 MOrb=            12 LenV=    4025782973
 LASXX=      5679395 LTotXX=     5679395 LenRXX=    11479218
 LTotAB=     5799823 MaxLAS=    14343240 LenRXY=           0
 NonZer=    17158613 LenScr=    26512384 LnRSAI=    14343240
 LnScr1=    22272000 LExtra=           0 Total=     74606842
 MaxDsk=          -1 SrtSym=           T ITran=            4
 JobTyp=0 Pass  1:  I=   1 to  12.
 (rs|ai) integrals will be sorted in core.
 Spin components of T(2) and E(2):
     alpha-alpha T2 =       0.2526586762D-01 E2=     -0.1154947890D+00
     alpha-beta  T2 =       0.1294535722D+00 E2=     -0.6443824382D+00
     beta-beta   T2 =       0.2526586762D-01 E2=     -0.1154947890D+00
 ANorm=    0.1086271286D+01
 E2 =    -0.8753720161D+00 EUMP2 =    -0.29984803273995D+03
 Keep R2 and R3 ints in memory in symmetry-blocked form, NReq=106598451.
 CIDS: In Core Option IDoMem=           1.
 Iterations=  50 Convergence= 0.100D-06
 Produce multiple copies of IABC intergrals
 Iteration Nr.   1
 **********************
 DD1Dir will call FoFMem   1 times, MxPair=       156
 NAB=    78 NAA=     0 NBB=     0.
 MP4(R+Q)=  0.10074978D-01
 E3=        0.23413774D-01        EUMP3=      -0.29982461897D+03
 E4(DQ)=   -0.57967656D-02        UMP4(DQ)=   -0.29983041573D+03
 E4(SDQ)=  -0.17481401D-01        UMP4(SDQ)=  -0.29984210037D+03
 DE(Corr)= -0.84100543     E(Corr)=     -299.81366615    
 NORM(A)=   0.10803595D+01
 Iteration Nr.   2
 **********************
 DD1Dir will call FoFMem   1 times, MxPair=       156
 NAB=    78 NAA=     0 NBB=     0.
 DE(Corr)= -0.86412308     E(CORR)=     -299.83678381     Delta=-2.31D-02
 NORM(A)=   0.10859366D+01
 Iteration Nr.   3
 **********************
 DD1Dir will call FoFMem   1 times, MxPair=       156
 NAB=    78 NAA=     0 NBB=     0.
 DE(Corr)= -0.86122912     E(CORR)=     -299.83388984     Delta= 2.89D-03
 NORM(A)=   0.10881179D+01
 Iteration Nr.   4
 **********************
 DD1Dir will call FoFMem   1 times, MxPair=       156
 NAB=    78 NAA=     0 NBB=     0.
 DE(Corr)= -0.86312417     E(CORR)=     -299.83578489     Delta=-1.90D-03
 NORM(A)=   0.10889610D+01
 Iteration Nr.   5
 **********************
 DD1Dir will call FoFMem   1 times, MxPair=       156
 NAB=    78 NAA=     0 NBB=     0.
 DE(Corr)= -0.86331693     E(CORR)=     -299.83597765     Delta=-1.93D-04
 NORM(A)=   0.10891460D+01
 Iteration Nr.   6
 **********************
 DD1Dir will call FoFMem   1 times, MxPair=       156
 NAB=    78 NAA=     0 NBB=     0.
 DE(Corr)= -0.86332496     E(CORR)=     -299.83598569     Delta=-8.03D-06
 NORM(A)=   0.10892002D+01
 Iteration Nr.   7
 **********************
 DD1Dir will call FoFMem   1 times, MxPair=       156
 NAB=    78 NAA=     0 NBB=     0.
 DE(Corr)= -0.86332287     E(CORR)=     -299.83598360     Delta= 2.09D-06
 NORM(A)=   0.10892048D+01
 Iteration Nr.   8
 **********************
 DD1Dir will call FoFMem   1 times, MxPair=       156
 NAB=    78 NAA=     0 NBB=     0.
 DE(Corr)= -0.86332491     E(CORR)=     -299.83598564     Delta=-2.04D-06
 NORM(A)=   0.10892073D+01
 Iteration Nr.   9
 **********************
 DD1Dir will call FoFMem   1 times, MxPair=       156
 NAB=    78 NAA=     0 NBB=     0.
 DE(Corr)= -0.86332259     E(CORR)=     -299.83598332     Delta= 2.32D-06
 NORM(A)=   0.10892084D+01
 Iteration Nr.  10
 **********************
 DD1Dir will call FoFMem   1 times, MxPair=       156
 NAB=    78 NAA=     0 NBB=     0.
 DE(Corr)= -0.86332359     E(CORR)=     -299.83598431     Delta=-9.97D-07
 NORM(A)=   0.10892084D+01
 Iteration Nr.  11
 **********************
 DD1Dir will call FoFMem   1 times, MxPair=       156
 NAB=    78 NAA=     0 NBB=     0.
 DE(Corr)= -0.86332311     E(CORR)=     -299.83598383     Delta= 4.80D-07
 NORM(A)=   0.10892084D+01
 Iteration Nr.  12
 **********************
 DD1Dir will call FoFMem   1 times, MxPair=       156
 NAB=    78 NAA=     0 NBB=     0.
 DE(Corr)= -0.86332319     E(CORR)=     -299.83598392     Delta=-8.29D-08
 NORM(A)=   0.10892083D+01
 Wavefunction amplitudes converged. E(Corr)=     -299.83598392    
 Largest amplitude= 3.68D-02
 Discarding MO integrals.

 **********************************************************************

            Population analysis using the SCF Density.

 **********************************************************************

 Orbital symmetries:
       Occupied  (B2) (A1) (A1) (A1) (B2) (A1) (A1) (B1) (A1) (A2)
                 (B2) (B2) (A1) (B2) (B1)
       Virtual   (A1) (B2) (B1) (A1) (A1) (A2) (B2) (B1) (B2) (A1)
                 (A1) (A1) (B2) (B1) (A1) (A1) (B2) (A1) (B1) (A1)
                 (A2) (B2) (B1) (A1) (A1) (A2) (B1) (B2) (A1) (A1)
                 (A2) (B2) (B1) (A1) (A2) (B2) (B2) (B1) (A1) (A1)
                 (B1) (B2) (A1) (B2) (A1) (B1) (A1) (A1) (A2) (B2)
                 (B2) (B2) (A1) (B1) (A1) (A2) (B2) (A2) (B2) (B1)
                 (A1) (A2) (B2) (B1) (A1) (A1) (A2) (B1) (B2) (A1)
                 (A2) (B2) (B1) (B2) (A1) (A2) (B1) (B2) (A1) (A1)
                 (B1) (A1) (B2) (A2) (B2) (A1) (B2) (B1) (A1) (B1)
                 (A1) (A1) (B1) (A1) (A1) (B2) (B1) (A1) (B1) (B2)
                 (A1) (A2) (B2) (A2) (B2) (B2) (A1) (B1) (A1) (A2)
                 (B2) (A2) (B2) (B1) (B2) (A1) (A2) (B1) (B2) (A1)
                 (B1) (A1) (B2) (A2) (B2) (A2) (B2) (B1) (A1) (B1)
                 (A1) (A1) (A2) (B1) (B2) (A1) (B1) (A1) (A1) (A2)
                 (B2) (A1) (B2) (A1) (B2) (A1)
 The electronic state is 1-A1.
 Alpha  occ. eigenvalues --  -25.90166 -25.90164 -25.77814  -1.20402  -1.15675
 Alpha  occ. eigenvalues --   -1.02046  -0.41317  -0.27535  -0.27528  -0.24885
 Alpha  occ. eigenvalues --   -0.24881  -0.22799  -0.12539  -0.12538  -0.12538
 Alpha virt. eigenvalues --    0.25125   0.35882   0.41040   0.41077   0.41578
 Alpha virt. eigenvalues --    0.48875   0.49068   0.49744   0.49749   0.49861
 Alpha virt. eigenvalues --    0.53331   0.54216   0.60160   0.67658   0.67796
 Alpha virt. eigenvalues --    0.77573   0.95993   0.97507   1.05549   1.05551
 Alpha virt. eigenvalues --    1.25555   1.25556   1.26434   1.26503   1.28376
 Alpha virt. eigenvalues --    1.28376   1.28420   1.28421   1.28437   1.32957
 Alpha virt. eigenvalues --    1.36899   1.36957   1.48201   1.48262   1.51224
 Alpha virt. eigenvalues --    1.51280   1.51494   1.52754   1.52755   1.53345
 Alpha virt. eigenvalues --    1.58139   1.58141   1.58206   1.63167   1.74861
 Alpha virt. eigenvalues --    2.05830   2.05886   2.10674   2.30963   2.31032
 Alpha virt. eigenvalues --    2.40988   2.90327   2.99284   3.15999   3.16000
 Alpha virt. eigenvalues --    3.17993   3.18016   3.21400   3.21401   3.26990
 Alpha virt. eigenvalues --    3.26990   3.28341   3.28341   3.31945   3.31970
 Alpha virt. eigenvalues --    3.33878   3.33878   3.33896   3.33896   3.33903
 Alpha virt. eigenvalues --    3.36467   3.36467   3.38712   3.38712   3.38730
 Alpha virt. eigenvalues --    3.38730   3.38741   3.38741   3.38745   3.45608
 Alpha virt. eigenvalues --    3.64782   3.64783   3.89234   3.89416   3.89444
 Alpha virt. eigenvalues --    3.95639   4.07065   4.25331   4.25358   4.54877
 Alpha virt. eigenvalues --    4.54877   4.78340   4.85202   4.85218   5.41325
 Alpha virt. eigenvalues --    5.68138   5.71141   5.71159   5.72776   5.72777
 Alpha virt. eigenvalues --    5.72795   5.81666   5.81687   6.41116   6.41128
 Alpha virt. eigenvalues --    7.52086   8.43228   9.19707   9.19707   9.20519
 Alpha virt. eigenvalues --    9.20519   9.22889   9.22889   9.32346   9.32346
 Alpha virt. eigenvalues --    9.32356   9.32356   9.32361   9.32361   9.32363
 Alpha virt. eigenvalues --    9.43410   9.43411   9.58907   9.60624   9.60635
 Alpha virt. eigenvalues --    9.69975   9.69975   9.71596   9.71607   9.75186
 Alpha virt. eigenvalues --    9.75186   9.80066   9.80066   9.80075   9.80075
 Alpha virt. eigenvalues --    9.80078   9.91160   9.91170  10.04120  10.10158
 Alpha virt. eigenvalues --   10.10167  10.44579  10.58085  11.02105  13.55757
 Alpha virt. eigenvalues --   15.44539
          Condensed to atoms (all electrons):
               1          2          3          4
     1  F    9.999999   0.000000   0.000001   0.000000
     2  F    0.000000   9.765130   0.092974  -0.102806
     3  H    0.000001   0.092974   0.303458   0.092974
     4  F    0.000000  -0.102806   0.092974   9.765130
 Mulliken charges:
               1
     1  F   -0.999999
     2  F   -0.755297
     3  H    0.510594
     4  F   -0.755297
 Sum of Mulliken charges =  -2.00000
 Mulliken charges with hydrogens summed into heavy atoms:
               1
     1  F   -0.999999
     2  F   -0.244703
     4  F   -0.755297
 Electronic spatial extent (au):  <R**2>=           2240.0409
 Charge=             -2.0000 electrons
 Dipole moment (field-independent basis, Debye):
    X=              0.0000    Y=             -0.0000    Z=            -16.0974  Tot=             16.0974
 Quadrupole moment (field-independent basis, Debye-Ang):
   XX=            -19.7421   YY=            -28.8869   ZZ=           -260.1998
   XY=             -0.0000   XZ=             -0.0000   YZ=              0.0000
 Traceless Quadrupole moment (field-independent basis, Debye-Ang):
   XX=             83.2008   YY=             74.0561   ZZ=           -157.2569
   XY=             -0.0000   XZ=             -0.0000   YZ=              0.0000
 Octapole moment (field-independent basis, Debye-Ang**2):
  XXX=              0.0000  YYY=              0.0000  ZZZ=          -1141.6448  XYY=              0.0000
  XXY=              0.0000  XXZ=             -7.7421  XZZ=              0.0000  YZZ=              0.0000
  YYZ=             19.9947  XYZ=              0.0000
 Hexadecapole moment (field-independent basis, Debye-Ang**3):
 XXXX=            -18.2163 YYYY=           -122.7325 ZZZZ=         -10876.2129 XXXY=             -0.0000
 XXXZ=             -0.0000 YYYX=             -0.0000 YYYZ=              0.0000 ZZZX=             -0.0000
 ZZZY=             -0.0000 XXYY=            -22.1119 XXZZ=           -413.1845 YYZZ=           -513.3253
 XXYZ=              0.0000 YYXZ=             -0.0000 ZZXY=             -0.0000
 N-N= 3.673928757779D+01 E-N=-8.042395803481D+02  KE= 2.988721887192D+02
 Symmetry A1   KE= 1.805279580005D+02
 Symmetry A2   KE= 6.155770700554D+00
 Symmetry B1   KE= 1.145972181830D+01
 Symmetry B2   KE= 1.007287381998D+02
 1\1\GINC-HELIOS\SP\RCCSD-FC\Aug-CC-pVTZ\F3H1(2-)\POHL\08-May-2025\0\\#
  CCSD/aug-cc-pVTZ SP\\Single-point energy of X- + Y- at fixed distance
  R\\-2,1\F,0,0.,0.,9.4\F,0,-1.139,0.,0.\H,0,0.,0.,0.\F,0,1.139,0.,0.\\
 Version=EM64L-G16RevB.01\State=1-A1\HF=-298.9726607\MP2=-299.8480327\M
 P3=-299.824619\MP4D=-299.8404907\MP4DQ=-299.8304157\MP4SDQ=-299.842100
 4\CCSD=-299.8359839\RMSD=5.552e-09\PG=C02V [C2(H1F1),SGV(F2)]\\@


 Statistics are no substitute for judgment.
                            -- Henry Clay
 Job cpu time:       0 days  0 hours  3 minutes 47.2 seconds.
 Elapsed time:       0 days  0 hours  0 minutes 22.8 seconds.
 File lengths (MBytes):  RWF=    607 Int=      0 D2E=      0 Chk=      3 Scr=      1
 Normal termination of Gaussian 16 at Thu May  8 14:45:05 2025.
