 Entering Gaussian System, Link 0=g16
 Initial command:
 /opt/g16/l1.exe "/home/pohl/scratches/g16/Gau-1289661.inp" -scrdir="/home/pohl/scratches/g16/"
 Entering Link 1 = /opt/g16/l1.exe PID=   1289663.
  
 Copyright (c) 1988-2017, Gaussian, Inc.  All Rights Reserved.
  
 This is part of the Gaussian(R) 16 program.  It is based on
 the Gaussian(R) 09 system (copyright 2009, Gaussian, Inc.),
 the Gaussian(R) 03 system (copyright 2003, Gaussian, Inc.),
 the Gaussian(R) 98 system (copyright 1998, Gaussian, Inc.),
 the Gaussian(R) 94 system (copyright 1995, Gaussian, Inc.),
 the Gaussian 92(TM) system (copyright 1992, Gaussian, Inc.),
 the Gaussian 90(TM) system (copyright 1990, Gaussian, Inc.),
 the Gaussian 88(TM) system (copyright 1988, Gaussian, Inc.),
 the Gaussian 86(TM) system (copyright 1986, Carnegie Mellon
 University), and the Gaussian 82(TM) system (copyright 1983,
 Carnegie Mellon University). Gaussian is a federally registered
 trademark of Gaussian, Inc.
  
 This software contains proprietary and confidential information,
 including trade secrets, belonging to Gaussian, Inc.
  
 This software is provided under written license and may be
 used, copied, transmitted, or stored only in accord with that
 written license.
  
 The following legend is applicable only to US Government
 contracts under FAR:
  
                    RESTRICTED RIGHTS LEGEND
  
 Use, reproduction and disclosure by the US Government is
 subject to restrictions as set forth in subparagraphs (a)
 and (c) of the Commercial Computer Software - Restricted
 Rights clause in FAR 52.227-19.
  
 Gaussian, Inc.
 340 Quinnipiac St., Bldg. 40, Wallingford CT 06492
  
  
 ---------------------------------------------------------------
 Warning -- This program may not be used in any manner that
 competes with the business of Gaussian, Inc. or will provide
 assistance to any competitor of Gaussian, Inc.  The licensee
 of this program is prohibited from giving any competitor of
 Gaussian, Inc. access to this program.  By using this program,
 the user acknowledges that Gaussian, Inc. is engaged in the
 business of creating and licensing software in the field of
 computational chemistry and represents and warrants to the
 licensee that it is not a competitor of Gaussian, Inc. and that
 it will not use this program in any manner prohibited above.
 ---------------------------------------------------------------
  

 Cite this work as:
 Gaussian 16, Revision B.01,
 M. J. Frisch, G. W. Trucks, H. B. Schlegel, G. E. Scuseria, 
 M. A. Robb, J. R. Cheeseman, G. Scalmani, V. Barone, 
 G. A. Petersson, H. Nakatsuji, X. Li, M. Caricato, A. V. Marenich, 
 J. Bloino, B. G. Janesko, R. Gomperts, B. Mennucci, H. P. Hratchian, 
 J. V. Ortiz, A. F. Izmaylov, J. L. Sonnenberg, D. Williams-Young, 
 F. Ding, F. Lipparini, F. Egidi, J. Goings, B. Peng, A. Petrone, 
 T. Henderson, D. Ranasinghe, V. G. Zakrzewski, J. Gao, N. Rega, 
 G. Zheng, W. Liang, M. Hada, M. Ehara, K. Toyota, R. Fukuda, 
 J. Hasegawa, M. Ishida, T. Nakajima, Y. Honda, O. Kitao, H. Nakai, 
 T. Vreven, K. Throssell, J. A. Montgomery, Jr., J. E. Peralta, 
 F. Ogliaro, M. J. Bearpark, J. J. Heyd, E. N. Brothers, K. N. Kudin, 
 V. N. Staroverov, T. A. Keith, R. Kobayashi, J. Normand, 
 K. Raghavachari, A. P. Rendell, J. C. Burant, S. S. Iyengar, 
 J. Tomasi, M. Cossi, J. M. Millam, M. Klene, C. Adamo, R. Cammi, 
 J. W. Ochterski, R. L. Martin, K. Morokuma, O. Farkas, 
 J. B. Foresman, and D. J. Fox, Gaussian, Inc., Wallingford CT, 2016.
 
 ******************************************
 Gaussian 16:  EM64L-G16RevB.01 20-Dec-2017
                 7-May-2025 
 ******************************************
 %mem=30GB
 %nprocshared=10
 Will use up to   10 processors via shared memory.
 ---------------------
 # CCSD/aug-cc-pVTZ SP
 ---------------------
 1/38=1,172=1/1;
 2/12=2,17=6,18=5,40=1/2;
 3/5=16,6=1,7=10,11=9,25=1,30=1/1,2,3;
 4//1;
 5/5=2,38=5/2;
 8/6=4,9=120000,10=1/1,4;
 9/5=7/13;
 6/7=2,8=2,9=2,10=2/1;
 99/5=1,9=1/99;
 --------------------------------------------------
 Single-point energy of X- + Y- at fixed distance R
 --------------------------------------------------
 Symbolic Z-matrix:
 Charge = -2 Multiplicity = 1
 F                     0.        0.        8.5 
 F                    -1.139     0.        0. 
 H                     0.        0.        0. 
 F                     1.139     0.        0. 
 
                          Input orientation:                          
 ---------------------------------------------------------------------
 Center     Atomic      Atomic             Coordinates (Angstroms)
 Number     Number       Type             X           Y           Z
 ---------------------------------------------------------------------
      1          9           0        0.000000    0.000000    8.500000
      2          9           0       -1.139000    0.000000    0.000000
      3          1           0        0.000000    0.000000    0.000000
      4          9           0        1.139000    0.000000    0.000000
 ---------------------------------------------------------------------
                    Distance matrix (angstroms):
                    1          2          3          4
     1  F    0.000000
     2  F    8.575973   0.000000
     3  H    8.500000   1.139000   0.000000
     4  F    8.575973   2.278000   1.139000   0.000000
 Stoichiometry    F3H(2-)
 Framework group  C2V[C2(HF),SGV(F2)]
 Deg. of freedom     3
 Full point group                 C2V     NOp   4
 Largest Abelian subgroup         C2V     NOp   4
 Largest concise Abelian subgroup C2      NOp   2
                         Standard orientation:                         
 ---------------------------------------------------------------------
 Center     Atomic      Atomic             Coordinates (Angstroms)
 Number     Number       Type             X           Y           Z
 ---------------------------------------------------------------------
      1          9           0        0.000000    0.000000    5.767857
      2          9           0        0.000000    1.139000   -2.732143
      3          1           0        0.000000   -0.000000   -2.732143
      4          9           0       -0.000000   -1.139000   -2.732143
 ---------------------------------------------------------------------
 Rotational constants (GHZ):          10.2523318           0.5475160           0.5197587
 Standard basis: Aug-CC-pVTZ (5D, 7F)
 There are    74 symmetry adapted cartesian basis functions of A1  symmetry.
 There are    25 symmetry adapted cartesian basis functions of A2  symmetry.
 There are    36 symmetry adapted cartesian basis functions of B1  symmetry.
 There are    55 symmetry adapted cartesian basis functions of B2  symmetry.
 There are    60 symmetry adapted basis functions of A1  symmetry.
 There are    23 symmetry adapted basis functions of A2  symmetry.
 There are    32 symmetry adapted basis functions of B1  symmetry.
 There are    46 symmetry adapted basis functions of B2  symmetry.
   161 basis functions,   243 primitive gaussians,   190 cartesian basis functions
    15 alpha electrons       15 beta electrons
       nuclear repulsion energy        37.7354417930 Hartrees.
 NAtoms=    4 NActive=    4 NUniq=    3 SFac= 1.78D+00 NAtFMM=   60 NAOKFM=F Big=F
 Integral buffers will be    131072 words long.
 Raffenetti 1 integral format.
 Two-electron integral symmetry is turned on.
 One-electron integrals computed using PRISM.
 NBasis=   161 RedAO= T EigKep=  2.93D-04  NBF=    60    23    32    46
 NBsUse=   161 1.00D-06 EigRej= -1.00D+00 NBFU=    60    23    32    46
 ExpMin= 2.53D-02 ExpMax= 1.95D+04 ExpMxC= 6.65D+02 IAcc=3 IRadAn=         5 AccDes= 0.00D+00
 Harris functional with IExCor=  205 and IRadAn=       5 diagonalized for initial guess.
 HarFok:  IExCor=  205 AccDes= 0.00D+00 IRadAn=         5 IDoV= 1 UseB2=F ITyADJ=14
 ICtDFT=  3500011 ScaDFX=  1.000000  1.000000  1.000000  1.000000
 FoFCou: FMM=F IPFlag=           0 FMFlag=      100000 FMFlg1=           0
         NFxFlg=           0 DoJE=T BraDBF=F KetDBF=T FulRan=T
         wScrn=  0.000000 ICntrl=       500 IOpCl=  0 I1Cent=   200000004 NGrid=           0
         NMat0=    1 NMatS0=      1 NMatT0=    0 NMatD0=    1 NMtDS0=    0 NMtDT0=    0
 Petite list used in FoFCou.
 Initial guess orbital symmetries:
       Occupied  (A1) (B2) (A1) (A1) (B2) (A1) (A1) (A1) (B1) (B2)
                 (B2) (A2) (A1) (B1) (B2)
       Virtual   (A1) (B2) (A1) (A1) (B1) (A1) (A1) (B2) (B1) (A1)
                 (A2) (B2) (B2) (B1) (A1) (A1) (A1) (B2) (B1) (A1)
                 (B1) (B2) (A2) (A1) (A1) (B2) (A2) (A1) (B1) (B2)
                 (A2) (A1) (A1) (B1) (B1) (B2) (A1) (A2) (B2) (B2)
                 (A1) (A1) (B1) (B2) (A1) (A1) (B1) (A1) (B2) (A2)
                 (B2) (B2) (A1) (A1) (B1) (A2) (B2) (B2) (A2) (B1)
                 (B2) (A2) (A1) (A1) (B1) (A1) (B1) (A1) (B2) (A2)
                 (A2) (B1) (B2) (B1) (A1) (B2) (A1) (A2) (B2) (A1)
                 (B1) (A1) (B2) (A2) (B2) (A1) (B2) (B1) (A1) (B1)
                 (A1) (A1) (B1) (A1) (A1) (B1) (B2) (A1) (B1) (A1)
                 (B2) (A2) (B2) (A2) (B2) (B2) (A1) (B1) (A1) (B2)
                 (A2) (A2) (B1) (B2) (B1) (A1) (B2) (A1) (A2) (B2)
                 (B1) (A1) (B2) (B1) (B2) (A2) (A1) (A1) (A2) (B2)
                 (B2) (A2) (A1) (B1) (B1) (A1) (B1) (A1) (A1) (A2)
                 (B2) (A1) (B2) (A1) (B2) (A1)
 The electronic state of the initial guess is 1-A1.
 Keep R1 ints in memory in symmetry-blocked form, NReq=106592091.
 Requested convergence on RMS density matrix=1.00D-08 within 128 cycles.
 Requested convergence on MAX density matrix=1.00D-06.
 Requested convergence on             energy=1.00D-06.
 No special actions if energy rises.
 SCF Done:  E(RHF) =  -298.966951489     A.U. after   10 cycles
            NFock= 10  Conv=0.57D-08     -V/T= 2.0003
 ExpMin= 2.53D-02 ExpMax= 1.95D+04 ExpMxC= 6.65D+02 IAcc=3 IRadAn=         5 AccDes= 0.00D+00
 HarFok:  IExCor=  205 AccDes= 0.00D+00 IRadAn=         5 IDoV=-2 UseB2=F ITyADJ=14
 ICtDFT= 12500011 ScaDFX=  1.000000  1.000000  1.000000  1.000000
 Range of M.O.s used for correlation:     4   161
 NBasis=   161 NAE=    15 NBE=    15 NFC=     3 NFV=     0
 NROrb=    158 NOA=    12 NOB=    12 NVA=   146 NVB=   146

 **** Warning!!: The largest alpha MO coefficient is  0.21625706D+02

 Semi-Direct transformation.
 ModeAB=           4 MOrb=            12 LenV=    4025782212
 LASXX=      5679395 LTotXX=     5679395 LenRXX=    11479218
 LTotAB=     5799823 MaxLAS=    14384952 LenRXY=           0
 NonZer=    17158613 LenScr=    26512384 LnRSAI=    14384952
 LnScr1=    22346240 LExtra=           0 Total=     74722794
 MaxDsk=          -1 SrtSym=           T ITran=            4
 JobTyp=0 Pass  1:  I=   1 to  12.
 (rs|ai) integrals will be sorted in core.
 Spin components of T(2) and E(2):
     alpha-alpha T2 =       0.2526673879D-01 E2=     -0.1154955687D+00
     alpha-beta  T2 =       0.1294575736D+00 E2=     -0.6443854060D+00
     beta-beta   T2 =       0.2526673879D-01 E2=     -0.1154955687D+00
 ANorm=    0.1086273930D+01
 E2 =    -0.8753765435D+00 EUMP2 =    -0.29984232803273D+03
 Keep R2 and R3 ints in memory in symmetry-blocked form, NReq=106598451.
 CIDS: In Core Option IDoMem=           1.
 Iterations=  50 Convergence= 0.100D-06
 Produce multiple copies of IABC intergrals
 Iteration Nr.   1
 **********************
 DD1Dir will call FoFMem   1 times, MxPair=       156
 NAB=    78 NAA=     0 NBB=     0.
 MP4(R+Q)=  0.10074795D-01
 E3=        0.23416937D-01        EUMP3=      -0.29981891110D+03
 E4(DQ)=   -0.57980146D-02        UMP4(DQ)=   -0.29982470911D+03
 E4(SDQ)=  -0.17484663D-01        UMP4(SDQ)=  -0.29983639576D+03
 DE(Corr)= -0.84100663     E(Corr)=     -299.80795812    
 NORM(A)=   0.10803631D+01
 Iteration Nr.   2
 **********************
 DD1Dir will call FoFMem   1 times, MxPair=       156
 NAB=    78 NAA=     0 NBB=     0.
 DE(Corr)= -0.86412685     E(CORR)=     -299.83107834     Delta=-2.31D-02
 NORM(A)=   0.10859403D+01
 Iteration Nr.   3
 **********************
 DD1Dir will call FoFMem   1 times, MxPair=       156
 NAB=    78 NAA=     0 NBB=     0.
 DE(Corr)= -0.86123147     E(CORR)=     -299.82818296     Delta= 2.90D-03
 NORM(A)=   0.10881231D+01
 Iteration Nr.   4
 **********************
 DD1Dir will call FoFMem   1 times, MxPair=       156
 NAB=    78 NAA=     0 NBB=     0.
 DE(Corr)= -0.86312714     E(CORR)=     -299.83007863     Delta=-1.90D-03
 NORM(A)=   0.10889667D+01
 Iteration Nr.   5
 **********************
 DD1Dir will call FoFMem   1 times, MxPair=       156
 NAB=    78 NAA=     0 NBB=     0.
 DE(Corr)= -0.86332005     E(CORR)=     -299.83027154     Delta=-1.93D-04
 NORM(A)=   0.10891520D+01
 Iteration Nr.   6
 **********************
 DD1Dir will call FoFMem   1 times, MxPair=       156
 NAB=    78 NAA=     0 NBB=     0.
 DE(Corr)= -0.86332815     E(CORR)=     -299.83027964     Delta=-8.10D-06
 NORM(A)=   0.10892063D+01
 Iteration Nr.   7
 **********************
 DD1Dir will call FoFMem   1 times, MxPair=       156
 NAB=    78 NAA=     0 NBB=     0.
 DE(Corr)= -0.86332603     E(CORR)=     -299.83027752     Delta= 2.12D-06
 NORM(A)=   0.10892116D+01
 Iteration Nr.   8
 **********************
 DD1Dir will call FoFMem   1 times, MxPair=       156
 NAB=    78 NAA=     0 NBB=     0.
 DE(Corr)= -0.86332910     E(CORR)=     -299.83028059     Delta=-3.07D-06
 NORM(A)=   0.10892143D+01
 Iteration Nr.   9
 **********************
 DD1Dir will call FoFMem   1 times, MxPair=       156
 NAB=    78 NAA=     0 NBB=     0.
 DE(Corr)= -0.86332563     E(CORR)=     -299.83027712     Delta= 3.47D-06
 NORM(A)=   0.10892156D+01
 Iteration Nr.  10
 **********************
 DD1Dir will call FoFMem   1 times, MxPair=       156
 NAB=    78 NAA=     0 NBB=     0.
 DE(Corr)= -0.86332704     E(CORR)=     -299.83027853     Delta=-1.41D-06
 NORM(A)=   0.10892155D+01
 Iteration Nr.  11
 **********************
 DD1Dir will call FoFMem   1 times, MxPair=       156
 NAB=    78 NAA=     0 NBB=     0.
 DE(Corr)= -0.86332642     E(CORR)=     -299.83027791     Delta= 6.20D-07
 NORM(A)=   0.10892155D+01
 Iteration Nr.  12
 **********************
 DD1Dir will call FoFMem   1 times, MxPair=       156
 NAB=    78 NAA=     0 NBB=     0.
 DE(Corr)= -0.86332635     E(CORR)=     -299.83027784     Delta= 7.50D-08
 NORM(A)=   0.10892153D+01
 Wavefunction amplitudes converged. E(Corr)=     -299.83027784    
 Largest amplitude= 3.68D-02
 Discarding MO integrals.

 **********************************************************************

            Population analysis using the SCF Density.

 **********************************************************************

 Orbital symmetries:
       Occupied  (B2) (A1) (A1) (A1) (B2) (A1) (A1) (B1) (A1) (A2)
                 (B2) (B2) (A1) (B2) (B1)
       Virtual   (A1) (B2) (B1) (A1) (A1) (A2) (B2) (B1) (B2) (A1)
                 (A1) (A1) (B2) (B1) (A1) (A1) (B2) (A1) (B1) (A1)
                 (A2) (B2) (B1) (A1) (A1) (A2) (B1) (B2) (A1) (A1)
                 (A2) (B2) (B1) (A1) (A2) (B2) (B2) (B1) (A1) (A1)
                 (B1) (B2) (A1) (B2) (A1) (B1) (A1) (A1) (A2) (B2)
                 (B2) (B2) (A1) (B1) (A1) (A2) (B2) (A2) (B2) (B1)
                 (A1) (A2) (B2) (B1) (A1) (A1) (A2) (B1) (B2) (A1)
                 (A2) (B2) (B1) (B2) (A1) (A2) (B1) (B2) (A1) (A1)
                 (B1) (A1) (B2) (A2) (B2) (A1) (B2) (B1) (A1) (B1)
                 (A1) (A1) (B1) (A1) (A1) (B2) (B1) (A1) (B1) (B2)
                 (A1) (A2) (B2) (A2) (B2) (B2) (A1) (B1) (A1) (A2)
                 (B2) (A2) (B2) (B1) (B2) (A1) (A2) (B1) (B2) (A1)
                 (B1) (A1) (B2) (A2) (B2) (A2) (B2) (B1) (A1) (B1)
                 (A1) (A1) (A2) (B1) (B2) (A1) (B1) (A1) (A1) (A2)
                 (B2) (A1) (B2) (A1) (B2) (A1)
 The electronic state is 1-A1.
 Alpha  occ. eigenvalues --  -25.89592 -25.89590 -25.77246  -1.19826  -1.15100
 Alpha  occ. eigenvalues --   -1.01477  -0.40742  -0.26961  -0.26950  -0.24311
 Alpha  occ. eigenvalues --   -0.24305  -0.22226  -0.11970  -0.11969  -0.11969
 Alpha virt. eigenvalues --    0.25694   0.36370   0.41580   0.41594   0.42229
 Alpha virt. eigenvalues --    0.49412   0.49664   0.50291   0.50300   0.50405
 Alpha virt. eigenvalues --    0.53868   0.54953   0.60718   0.68222   0.68407
 Alpha virt. eigenvalues --    0.78150   0.96556   0.98089   1.06139   1.06142
 Alpha virt. eigenvalues --    1.26133   1.26135   1.26994   1.27085   1.28935
 Alpha virt. eigenvalues --    1.28935   1.28994   1.28996   1.29017   1.33535
 Alpha virt. eigenvalues --    1.37452   1.37527   1.48770   1.48854   1.51799
 Alpha virt. eigenvalues --    1.51874   1.52058   1.53336   1.53338   1.53898
 Alpha virt. eigenvalues --    1.58702   1.58704   1.58831   1.63737   1.75457
 Alpha virt. eigenvalues --    2.06399   2.06475   2.11252   2.31528   2.31620
 Alpha virt. eigenvalues --    2.41568   2.90901   2.99866   3.16578   3.16579
 Alpha virt. eigenvalues --    3.18566   3.18597   3.21978   3.21979   3.27569
 Alpha virt. eigenvalues --    3.27569   3.28919   3.28919   3.32514   3.32548
 Alpha virt. eigenvalues --    3.34443   3.34443   3.34466   3.34467   3.34476
 Alpha virt. eigenvalues --    3.37042   3.37042   3.39275   3.39275   3.39299
 Alpha virt. eigenvalues --    3.39299   3.39313   3.39314   3.39319   3.46180
 Alpha virt. eigenvalues --    3.65359   3.65360   3.89797   3.89982   3.90020
 Alpha virt. eigenvalues --    3.96218   4.07637   4.25902   4.25938   4.55457
 Alpha virt. eigenvalues --    4.55457   4.78929   4.85777   4.85799   5.41901
 Alpha virt. eigenvalues --    5.68714   5.71715   5.71739   5.73343   5.73344
 Alpha virt. eigenvalues --    5.73384   5.82238   5.82266   6.41691   6.41707
 Alpha virt. eigenvalues --    7.52661   8.43805   9.20284   9.20284   9.21096
 Alpha virt. eigenvalues --    9.21096   9.23464   9.23464   9.32912   9.32912
 Alpha virt. eigenvalues --    9.32924   9.32924   9.32931   9.32932   9.32934
 Alpha virt. eigenvalues --    9.43986   9.43986   9.59482   9.61197   9.61212
 Alpha virt. eigenvalues --    9.70550   9.70551   9.72166   9.72181   9.75760
 Alpha virt. eigenvalues --    9.75760   9.80633   9.80633   9.80644   9.80645
 Alpha virt. eigenvalues --    9.80649   9.91734   9.91747  10.04695  10.10731
 Alpha virt. eigenvalues --   10.10742  10.45152  10.58658  11.02688  13.56330
 Alpha virt. eigenvalues --   15.45127
          Condensed to atoms (all electrons):
               1          2          3          4
     1  F    9.999996   0.000000   0.000002   0.000000
     2  F    0.000000   9.765563   0.093191  -0.103311
     3  H    0.000002   0.093191   0.302735   0.093191
     4  F    0.000000  -0.103311   0.093191   9.765563
 Mulliken charges:
               1
     1  F   -0.999998
     2  F   -0.755442
     3  H    0.510882
     4  F   -0.755442
 Sum of Mulliken charges =  -2.00000
 Mulliken charges with hydrogens summed into heavy atoms:
               1
     1  F   -0.999998
     2  F   -0.244560
     4  F   -0.755442
 Electronic spatial extent (au):  <R**2>=           1856.3575
 Charge=             -2.0000 electrons
 Dipole moment (field-independent basis, Debye):
    X=              0.0000    Y=              0.0000    Z=            -14.5473  Tot=             14.5473
 Quadrupole moment (field-independent basis, Debye-Ang):
   XX=            -19.7444   YY=            -28.8967   ZZ=           -216.6888
   XY=             -0.0000   XZ=             -0.0000   YZ=              0.0000
 Traceless Quadrupole moment (field-independent basis, Debye-Ang):
   XX=             68.6989   YY=             59.5466   ZZ=           -128.2455
   XY=             -0.0000   XZ=             -0.0000   YZ=              0.0000
 Octapole moment (field-independent basis, Debye-Ang**2):
  XXX=              0.0000  YYY=              0.0000  ZZZ=           -849.0221  XYY=              0.0000
  XXY=             -0.0000  XXZ=             -6.9991  XZZ=              0.0000  YZZ=             -0.0000
  YYZ=             18.1358  XYZ=              0.0000
 Hexadecapole moment (field-independent basis, Debye-Ang**3):
 XXXX=            -18.2259 YYYY=           -122.7951 ZZZZ=          -7657.4011 XXXY=             -0.0000
 XXXZ=             -0.0000 YYYX=             -0.0000 YYYZ=             -0.0000 ZZZX=             -0.0000
 ZZZY=              0.0000 XXYY=            -22.1208 XXZZ=           -339.1694 YYZZ=           -424.2062
 XXYZ=             -0.0000 YYXZ=             -0.0000 ZZXY=             -0.0000
 N-N= 3.773544179301D+01 E-N=-8.063921468275D+02  KE= 2.988720296216D+02
 Symmetry A1   KE= 1.805296698672D+02
 Symmetry A2   KE= 6.155379826231D+00
 Symmetry B1   KE= 1.145887537713D+01
 Symmetry B2   KE= 1.007281045510D+02
 1\1\GINC-HELIOS\SP\RCCSD-FC\Aug-CC-pVTZ\F3H1(2-)\POHL\07-May-2025\0\\#
  CCSD/aug-cc-pVTZ SP\\Single-point energy of X- + Y- at fixed distance
  R\\-2,1\F,0,0.,0.,8.5\F,0,-1.139,0.,0.\H,0,0.,0.,0.\F,0,1.139,0.,0.\\
 Version=EM64L-G16RevB.01\State=1-A1\HF=-298.9669515\MP2=-299.842328\MP
 3=-299.8189111\MP4D=-299.8347839\MP4DQ=-299.8247091\MP4SDQ=-299.836395
 8\CCSD=-299.8302778\RMSD=5.721e-09\PG=C02V [C2(H1F1),SGV(F2)]\\@


 ALL SCIENCE IS EITHER PHYSICS, OR STAMP COLLECTING.
   --ERNEST RUTHERFORD, 1871-1937.
 Job cpu time:       0 days  0 hours  4 minutes 41.3 seconds.
 Elapsed time:       0 days  0 hours  0 minutes 28.2 seconds.
 File lengths (MBytes):  RWF=    608 Int=      0 D2E=      0 Chk=      3 Scr=      1
 Normal termination of Gaussian 16 at Wed May  7 12:29:22 2025.
