 Entering Gaussian System, Link 0=g16
 Initial command:
 /opt/g16/l1.exe "/home/pohl/scratches/g16/Gau-1289787.inp" -scrdir="/home/pohl/scratches/g16/"
 Entering Link 1 = /opt/g16/l1.exe PID=   1289789.
  
 Copyright (c) 1988-2017, Gaussian, Inc.  All Rights Reserved.
  
 This is part of the Gaussian(R) 16 program.  It is based on
 the Gaussian(R) 09 system (copyright 2009, Gaussian, Inc.),
 the Gaussian(R) 03 system (copyright 2003, Gaussian, Inc.),
 the Gaussian(R) 98 system (copyright 1998, Gaussian, Inc.),
 the Gaussian(R) 94 system (copyright 1995, Gaussian, Inc.),
 the Gaussian 92(TM) system (copyright 1992, Gaussian, Inc.),
 the Gaussian 90(TM) system (copyright 1990, Gaussian, Inc.),
 the Gaussian 88(TM) system (copyright 1988, Gaussian, Inc.),
 the Gaussian 86(TM) system (copyright 1986, Carnegie Mellon
 University), and the Gaussian 82(TM) system (copyright 1983,
 Carnegie Mellon University). Gaussian is a federally registered
 trademark of Gaussian, Inc.
  
 This software contains proprietary and confidential information,
 including trade secrets, belonging to Gaussian, Inc.
  
 This software is provided under written license and may be
 used, copied, transmitted, or stored only in accord with that
 written license.
  
 The following legend is applicable only to US Government
 contracts under FAR:
  
                    RESTRICTED RIGHTS LEGEND
  
 Use, reproduction and disclosure by the US Government is
 subject to restrictions as set forth in subparagraphs (a)
 and (c) of the Commercial Computer Software - Restricted
 Rights clause in FAR 52.227-19.
  
 Gaussian, Inc.
 340 Quinnipiac St., Bldg. 40, Wallingford CT 06492
  
  
 ---------------------------------------------------------------
 Warning -- This program may not be used in any manner that
 competes with the business of Gaussian, Inc. or will provide
 assistance to any competitor of Gaussian, Inc.  The licensee
 of this program is prohibited from giving any competitor of
 Gaussian, Inc. access to this program.  By using this program,
 the user acknowledges that Gaussian, Inc. is engaged in the
 business of creating and licensing software in the field of
 computational chemistry and represents and warrants to the
 licensee that it is not a competitor of Gaussian, Inc. and that
 it will not use this program in any manner prohibited above.
 ---------------------------------------------------------------
  

 Cite this work as:
 Gaussian 16, Revision B.01,
 M. J. Frisch, G. W. Trucks, H. B. Schlegel, G. E. Scuseria, 
 M. A. Robb, J. R. Cheeseman, G. Scalmani, V. Barone, 
 G. A. Petersson, H. Nakatsuji, X. Li, M. Caricato, A. V. Marenich, 
 J. Bloino, B. G. Janesko, R. Gomperts, B. Mennucci, H. P. Hratchian, 
 J. V. Ortiz, A. F. Izmaylov, J. L. Sonnenberg, D. Williams-Young, 
 F. Ding, F. Lipparini, F. Egidi, J. Goings, B. Peng, A. Petrone, 
 T. Henderson, D. Ranasinghe, V. G. Zakrzewski, J. Gao, N. Rega, 
 G. Zheng, W. Liang, M. Hada, M. Ehara, K. Toyota, R. Fukuda, 
 J. Hasegawa, M. Ishida, T. Nakajima, Y. Honda, O. Kitao, H. Nakai, 
 T. Vreven, K. Throssell, J. A. Montgomery, Jr., J. E. Peralta, 
 F. Ogliaro, M. J. Bearpark, J. J. Heyd, E. N. Brothers, K. N. Kudin, 
 V. N. Staroverov, T. A. Keith, R. Kobayashi, J. Normand, 
 K. Raghavachari, A. P. Rendell, J. C. Burant, S. S. Iyengar, 
 J. Tomasi, M. Cossi, J. M. Millam, M. Klene, C. Adamo, R. Cammi, 
 J. W. Ochterski, R. L. Martin, K. Morokuma, O. Farkas, 
 J. B. Foresman, and D. J. Fox, Gaussian, Inc., Wallingford CT, 2016.
 
 ******************************************
 Gaussian 16:  EM64L-G16RevB.01 20-Dec-2017
                 7-May-2025 
 ******************************************
 %mem=30GB
 %nprocshared=10
 Will use up to   10 processors via shared memory.
 ---------------------
 # CCSD/aug-cc-pVTZ SP
 ---------------------
 1/38=1,172=1/1;
 2/12=2,17=6,18=5,40=1/2;
 3/5=16,6=1,7=10,11=9,25=1,30=1/1,2,3;
 4//1;
 5/5=2,38=5/2;
 8/6=4,9=120000,10=1/1,4;
 9/5=7/13;
 6/7=2,8=2,9=2,10=2/1;
 99/5=1,9=1/99;
 --------------------------------------------------
 Single-point energy of X- + Y- at fixed distance R
 --------------------------------------------------
 Symbolic Z-matrix:
 Charge = -2 Multiplicity = 1
 F                     0.        0.        9. 
 F                    -1.139     0.        0. 
 H                     0.        0.        0. 
 F                     1.139     0.        0. 
 
                          Input orientation:                          
 ---------------------------------------------------------------------
 Center     Atomic      Atomic             Coordinates (Angstroms)
 Number     Number       Type             X           Y           Z
 ---------------------------------------------------------------------
      1          9           0        0.000000    0.000000    9.000000
      2          9           0       -1.139000    0.000000    0.000000
      3          1           0        0.000000    0.000000    0.000000
      4          9           0        1.139000    0.000000    0.000000
 ---------------------------------------------------------------------
                    Distance matrix (angstroms):
                    1          2          3          4
     1  F    0.000000
     2  F    9.071787   0.000000
     3  H    9.000000   1.139000   0.000000
     4  F    9.071787   2.278000   1.139000   0.000000
 Stoichiometry    F3H(2-)
 Framework group  C2V[C2(HF),SGV(F2)]
 Deg. of freedom     3
 Full point group                 C2V     NOp   4
 Largest Abelian subgroup         C2V     NOp   4
 Largest concise Abelian subgroup C2      NOp   2
                         Standard orientation:                         
 ---------------------------------------------------------------------
 Center     Atomic      Atomic             Coordinates (Angstroms)
 Number     Number       Type             X           Y           Z
 ---------------------------------------------------------------------
      1          9           0        0.000000    0.000000    6.107143
      2          9           0        0.000000    1.139000   -2.892857
      3          1           0        0.000000    0.000000   -2.892857
      4          9           0       -0.000000   -1.139000   -2.892857
 ---------------------------------------------------------------------
 Rotational constants (GHZ):          10.2523318           0.4883707           0.4661649
 Standard basis: Aug-CC-pVTZ (5D, 7F)
 There are    74 symmetry adapted cartesian basis functions of A1  symmetry.
 There are    25 symmetry adapted cartesian basis functions of A2  symmetry.
 There are    36 symmetry adapted cartesian basis functions of B1  symmetry.
 There are    55 symmetry adapted cartesian basis functions of B2  symmetry.
 There are    60 symmetry adapted basis functions of A1  symmetry.
 There are    23 symmetry adapted basis functions of A2  symmetry.
 There are    32 symmetry adapted basis functions of B1  symmetry.
 There are    46 symmetry adapted basis functions of B2  symmetry.
   161 basis functions,   243 primitive gaussians,   190 cartesian basis functions
    15 alpha electrons       15 beta electrons
       nuclear repulsion energy        37.1579796073 Hartrees.
 NAtoms=    4 NActive=    4 NUniq=    3 SFac= 1.78D+00 NAtFMM=   60 NAOKFM=F Big=F
 Integral buffers will be    131072 words long.
 Raffenetti 1 integral format.
 Two-electron integral symmetry is turned on.
 One-electron integrals computed using PRISM.
 NBasis=   161 RedAO= T EigKep=  2.93D-04  NBF=    60    23    32    46
 NBsUse=   161 1.00D-06 EigRej= -1.00D+00 NBFU=    60    23    32    46
 ExpMin= 2.53D-02 ExpMax= 1.95D+04 ExpMxC= 6.65D+02 IAcc=3 IRadAn=         5 AccDes= 0.00D+00
 Harris functional with IExCor=  205 and IRadAn=       5 diagonalized for initial guess.
 HarFok:  IExCor=  205 AccDes= 0.00D+00 IRadAn=         5 IDoV= 1 UseB2=F ITyADJ=14
 ICtDFT=  3500011 ScaDFX=  1.000000  1.000000  1.000000  1.000000
 FoFCou: FMM=F IPFlag=           0 FMFlag=      100000 FMFlg1=           0
         NFxFlg=           0 DoJE=T BraDBF=F KetDBF=T FulRan=T
         wScrn=  0.000000 ICntrl=       500 IOpCl=  0 I1Cent=   200000004 NGrid=           0
         NMat0=    1 NMatS0=      1 NMatT0=    0 NMatD0=    1 NMtDS0=    0 NMtDT0=    0
 Petite list used in FoFCou.
 Initial guess orbital symmetries:
       Occupied  (A1) (B2) (A1) (A1) (B2) (A1) (A1) (A1) (B1) (B2)
                 (B2) (A2) (A1) (B1) (B2)
       Virtual   (A1) (B2) (A1) (A1) (B1) (A1) (A1) (B2) (B1) (A1)
                 (A2) (B2) (B2) (B1) (A1) (A1) (A1) (B2) (B1) (A1)
                 (B1) (A2) (B2) (A1) (A1) (B2) (A2) (A1) (B1) (B2)
                 (A2) (A1) (A1) (B1) (B1) (B2) (A1) (A2) (B2) (B2)
                 (A1) (A1) (B1) (B2) (A1) (A1) (B1) (A1) (B2) (A2)
                 (B2) (B2) (A1) (A1) (B1) (A2) (B2) (B2) (A2) (B1)
                 (B2) (A2) (A1) (A1) (B1) (A1) (B1) (A1) (A2) (B2)
                 (B2) (B1) (A1) (A2) (A1) (B1) (B2) (A2) (B2) (A1)
                 (B1) (A1) (B2) (A2) (B2) (A1) (B2) (B1) (A1) (B1)
                 (A1) (A1) (B1) (A1) (A1) (B1) (B2) (A1) (B1) (A1)
                 (B2) (A2) (B2) (A2) (B2) (B2) (A1) (B1) (A1) (A2)
                 (B2) (B2) (B1) (A1) (A2) (B1) (A1) (B2) (A2) (B2)
                 (B1) (A1) (B2) (B1) (B2) (A2) (A1) (A1) (A2) (B2)
                 (B2) (A2) (A1) (B1) (B1) (A1) (B1) (A1) (A1) (A2)
                 (B2) (A1) (B2) (A1) (B2) (A1)
 The electronic state of the initial guess is 1-A1.
 Keep R1 ints in memory in symmetry-blocked form, NReq=106592091.
 Requested convergence on RMS density matrix=1.00D-08 within 128 cycles.
 Requested convergence on MAX density matrix=1.00D-06.
 Requested convergence on             energy=1.00D-06.
 No special actions if energy rises.
 SCF Done:  E(RHF) =  -298.970257759     A.U. after   10 cycles
            NFock= 10  Conv=0.56D-08     -V/T= 2.0003
 ExpMin= 2.53D-02 ExpMax= 1.95D+04 ExpMxC= 6.65D+02 IAcc=3 IRadAn=         5 AccDes= 0.00D+00
 HarFok:  IExCor=  205 AccDes= 0.00D+00 IRadAn=         5 IDoV=-2 UseB2=F ITyADJ=14
 ICtDFT= 12500011 ScaDFX=  1.000000  1.000000  1.000000  1.000000
 Range of M.O.s used for correlation:     4   161
 NBasis=   161 NAE=    15 NBE=    15 NFC=     3 NFV=     0
 NROrb=    158 NOA=    12 NOB=    12 NVA=   146 NVB=   146

 **** Warning!!: The largest alpha MO coefficient is  0.21635272D+02

 Semi-Direct transformation.
 ModeAB=           4 MOrb=            12 LenV=    4025782543
 LASXX=      5679395 LTotXX=     5679395 LenRXX=    11479218
 LTotAB=     5799823 MaxLAS=    14350824 LenRXY=           0
 NonZer=    17158613 LenScr=    26512384 LnRSAI=    14350824
 LnScr1=    22286848 LExtra=           0 Total=     74629274
 MaxDsk=          -1 SrtSym=           T ITran=            4
 JobTyp=0 Pass  1:  I=   1 to  12.
 (rs|ai) integrals will be sorted in core.
 Spin components of T(2) and E(2):
     alpha-alpha T2 =       0.2526619526D-01 E2=     -0.1154950691D+00
     alpha-beta  T2 =       0.1294550835D+00 E2=     -0.6443835034D+00
     beta-beta   T2 =       0.2526619526D-01 E2=     -0.1154950691D+00
 ANorm=    0.1086272284D+01
 E2 =    -0.8753736416D+00 EUMP2 =    -0.29984563140105D+03
 Keep R2 and R3 ints in memory in symmetry-blocked form, NReq=106598451.
 CIDS: In Core Option IDoMem=           1.
 Iterations=  50 Convergence= 0.100D-06
 Produce multiple copies of IABC intergrals
 Iteration Nr.   1
 **********************
 DD1Dir will call FoFMem   1 times, MxPair=       156
 NAB=    78 NAA=     0 NBB=     0.
 MP4(R+Q)=  0.10074897D-01
 E3=        0.23414973D-01        EUMP3=      -0.29982221643D+03
 E4(DQ)=   -0.57972497D-02        UMP4(DQ)=   -0.29982801368D+03
 E4(SDQ)=  -0.17482637D-01        UMP4(SDQ)=  -0.29983969907D+03
 DE(Corr)= -0.84100580     E(Corr)=     -299.81126356    
 NORM(A)=   0.10803609D+01
 Iteration Nr.   2
 **********************
 DD1Dir will call FoFMem   1 times, MxPair=       156
 NAB=    78 NAA=     0 NBB=     0.
 DE(Corr)= -0.86412442     E(CORR)=     -299.83438218     Delta=-2.31D-02
 NORM(A)=   0.10859380D+01
 Iteration Nr.   3
 **********************
 DD1Dir will call FoFMem   1 times, MxPair=       156
 NAB=    78 NAA=     0 NBB=     0.
 DE(Corr)= -0.86122993     E(CORR)=     -299.83148769     Delta= 2.89D-03
 NORM(A)=   0.10881198D+01
 Iteration Nr.   4
 **********************
 DD1Dir will call FoFMem   1 times, MxPair=       156
 NAB=    78 NAA=     0 NBB=     0.
 DE(Corr)= -0.86312521     E(CORR)=     -299.83338297     Delta=-1.90D-03
 NORM(A)=   0.10889631D+01
 Iteration Nr.   5
 **********************
 DD1Dir will call FoFMem   1 times, MxPair=       156
 NAB=    78 NAA=     0 NBB=     0.
 DE(Corr)= -0.86331802     E(CORR)=     -299.83357578     Delta=-1.93D-04
 NORM(A)=   0.10891482D+01
 Iteration Nr.   6
 **********************
 DD1Dir will call FoFMem   1 times, MxPair=       156
 NAB=    78 NAA=     0 NBB=     0.
 DE(Corr)= -0.86332608     E(CORR)=     -299.83358384     Delta=-8.06D-06
 NORM(A)=   0.10892025D+01
 Iteration Nr.   7
 **********************
 DD1Dir will call FoFMem   1 times, MxPair=       156
 NAB=    78 NAA=     0 NBB=     0.
 DE(Corr)= -0.86332398     E(CORR)=     -299.83358174     Delta= 2.10D-06
 NORM(A)=   0.10892073D+01
 Iteration Nr.   8
 **********************
 DD1Dir will call FoFMem   1 times, MxPair=       156
 NAB=    78 NAA=     0 NBB=     0.
 DE(Corr)= -0.86332643     E(CORR)=     -299.83358419     Delta=-2.45D-06
 NORM(A)=   0.10892098D+01
 Iteration Nr.   9
 **********************
 DD1Dir will call FoFMem   1 times, MxPair=       156
 NAB=    78 NAA=     0 NBB=     0.
 DE(Corr)= -0.86332365     E(CORR)=     -299.83358141     Delta= 2.78D-06
 NORM(A)=   0.10892111D+01
 Iteration Nr.  10
 **********************
 DD1Dir will call FoFMem   1 times, MxPair=       156
 NAB=    78 NAA=     0 NBB=     0.
 DE(Corr)= -0.86332482     E(CORR)=     -299.83358258     Delta=-1.17D-06
 NORM(A)=   0.10892110D+01
 Iteration Nr.  11
 **********************
 DD1Dir will call FoFMem   1 times, MxPair=       156
 NAB=    78 NAA=     0 NBB=     0.
 DE(Corr)= -0.86332426     E(CORR)=     -299.83358202     Delta= 5.61D-07
 NORM(A)=   0.10892110D+01
 Iteration Nr.  12
 **********************
 DD1Dir will call FoFMem   1 times, MxPair=       156
 NAB=    78 NAA=     0 NBB=     0.
 DE(Corr)= -0.86332429     E(CORR)=     -299.83358205     Delta=-2.94D-08
 NORM(A)=   0.10892109D+01
 Wavefunction amplitudes converged. E(Corr)=     -299.83358205    
 Largest amplitude= 3.68D-02
 Discarding MO integrals.

 **********************************************************************

            Population analysis using the SCF Density.

 **********************************************************************

 Orbital symmetries:
       Occupied  (B2) (A1) (A1) (A1) (B2) (A1) (A1) (B1) (A1) (A2)
                 (B2) (B2) (A1) (B2) (B1)
       Virtual   (A1) (B2) (B1) (A1) (A1) (A2) (B2) (B1) (B2) (A1)
                 (A1) (A1) (B2) (B1) (A1) (A1) (B2) (A1) (B1) (A1)
                 (A2) (B2) (B1) (A1) (A1) (A2) (B1) (B2) (A1) (A1)
                 (A2) (B2) (B1) (A1) (A2) (B2) (B2) (B1) (A1) (A1)
                 (B1) (B2) (A1) (B2) (A1) (B1) (A1) (A1) (A2) (B2)
                 (B2) (B2) (A1) (B1) (A1) (A2) (B2) (A2) (B2) (B1)
                 (A1) (A2) (B2) (B1) (A1) (A1) (A2) (B1) (B2) (A1)
                 (A2) (B2) (B1) (B2) (A1) (A2) (B1) (B2) (A1) (A1)
                 (B1) (A1) (B2) (A2) (B2) (A1) (B2) (B1) (A1) (B1)
                 (A1) (A1) (B1) (A1) (A1) (B2) (B1) (A1) (B1) (B2)
                 (A1) (A2) (B2) (A2) (B2) (B2) (A1) (B1) (A1) (A2)
                 (B2) (A2) (B2) (B1) (B2) (A1) (A2) (B1) (B2) (A1)
                 (B1) (A1) (B2) (A2) (B2) (A2) (B2) (B1) (A1) (B1)
                 (A1) (A1) (A2) (B1) (B2) (A1) (B1) (A1) (A1) (A2)
                 (B2) (A1) (B2) (A1) (B2) (A1)
 The electronic state is 1-A1.
 Alpha  occ. eigenvalues --  -25.89925 -25.89922 -25.77574  -1.20159  -1.15433
 Alpha  occ. eigenvalues --   -1.01806  -0.41075  -0.27294  -0.27285  -0.24644
 Alpha  occ. eigenvalues --   -0.24639  -0.22558  -0.12299  -0.12299  -0.12298
 Alpha virt. eigenvalues --    0.25364   0.36089   0.41268   0.41297   0.41851
 Alpha virt. eigenvalues --    0.49101   0.49319   0.49975   0.49981   0.50093
 Alpha virt. eigenvalues --    0.53566   0.54504   0.60395   0.67896   0.68052
 Alpha virt. eigenvalues --    0.77815   0.96230   0.97751   1.05797   1.05799
 Alpha virt. eigenvalues --    1.25798   1.25800   1.26670   1.26748   1.28611
 Alpha virt. eigenvalues --    1.28611   1.28661   1.28663   1.28681   1.33200
 Alpha virt. eigenvalues --    1.37132   1.37197   1.48440   1.48511   1.51465
 Alpha virt. eigenvalues --    1.51530   1.51732   1.52998   1.53000   1.53579
 Alpha virt. eigenvalues --    1.58377   1.58378   1.58464   1.63407   1.75109
 Alpha virt. eigenvalues --    2.06069   2.06134   2.10916   2.31201   2.31279
 Alpha virt. eigenvalues --    2.41232   2.90569   2.99529   3.16243   3.16243
 Alpha virt. eigenvalues --    3.18234   3.18261   3.21643   3.21644   3.27233
 Alpha virt. eigenvalues --    3.27234   3.28584   3.28584   3.32185   3.32213
 Alpha virt. eigenvalues --    3.34116   3.34116   3.34136   3.34137   3.34144
 Alpha virt. eigenvalues --    3.36709   3.36709   3.38949   3.38949   3.38969
 Alpha virt. eigenvalues --    3.38969   3.38982   3.38982   3.38986   3.45848
 Alpha virt. eigenvalues --    3.65025   3.65026   3.89471   3.89654   3.89686
 Alpha virt. eigenvalues --    3.95881   4.07306   4.25571   4.25602   4.55121
 Alpha virt. eigenvalues --    4.55121   4.78585   4.85444   4.85462   5.41567
 Alpha virt. eigenvalues --    5.68380   5.71383   5.71403   5.73015   5.73015
 Alpha virt. eigenvalues --    5.73040   5.81907   5.81931   6.41358   6.41371
 Alpha virt. eigenvalues --    7.52328   8.43470   9.19950   9.19950   9.20762
 Alpha virt. eigenvalues --    9.20762   9.23131   9.23131   9.32584   9.32584
 Alpha virt. eigenvalues --    9.32595   9.32595   9.32601   9.32601   9.32603
 Alpha virt. eigenvalues --    9.43653   9.43653   9.59149   9.60865   9.60878
 Alpha virt. eigenvalues --    9.70217   9.70217   9.71836   9.71848   9.75427
 Alpha virt. eigenvalues --    9.75427   9.80305   9.80305   9.80315   9.80315
 Alpha virt. eigenvalues --    9.80318   9.91402   9.91412  10.04362  10.10399
 Alpha virt. eigenvalues --   10.10409  10.44820  10.58326  11.02348  13.55998
 Alpha virt. eigenvalues --   15.44784
          Condensed to atoms (all electrons):
               1          2          3          4
     1  F    9.999998   0.000000   0.000001   0.000000
     2  F    0.000000   9.765298   0.093063  -0.103008
     3  H    0.000001   0.093063   0.303170   0.093063
     4  F    0.000000  -0.103008   0.093063   9.765298
 Mulliken charges:
               1
     1  F   -0.999999
     2  F   -0.755352
     3  H    0.510704
     4  F   -0.755352
 Sum of Mulliken charges =  -2.00000
 Mulliken charges with hydrogens summed into heavy atoms:
               1
     1  F   -0.999999
     2  F   -0.244649
     4  F   -0.755352
 Electronic spatial extent (au):  <R**2>=           2064.7483
 Charge=             -2.0000 electrons
 Dipole moment (field-independent basis, Debye):
    X=              0.0000    Y=             -0.0000    Z=            -15.4087  Tot=             15.4087
 Quadrupole moment (field-independent basis, Debye-Ang):
   XX=            -19.7430   YY=            -28.8908   ZZ=           -240.3176
   XY=             -0.0000   XZ=             -0.0000   YZ=              0.0000
 Traceless Quadrupole moment (field-independent basis, Debye-Ang):
   XX=             76.5741   YY=             67.4264   ZZ=           -144.0005
   XY=             -0.0000   XZ=             -0.0000   YZ=              0.0000
 Octapole moment (field-independent basis, Debye-Ang**2):
  XXX=              0.0000  YYY=             -0.0000  ZZZ=          -1004.3766  XYY=              0.0000
  XXY=              0.0000  XXZ=             -7.4119  XZZ=              0.0000  YZZ=              0.0000
  YYZ=             19.1672  XYZ=              0.0000
 Hexadecapole moment (field-independent basis, Debye-Ang**3):
 XXXX=            -18.2201 YYYY=           -122.7573 ZZZZ=          -9336.8661 XXXY=             -0.0000
 XXXZ=             -0.0000 YYYX=             -0.0000 YYYZ=             -0.0000 ZZZX=             -0.0000
 ZZZY=              0.0000 XXYY=            -22.1154 XXZZ=           -379.3675 YYZZ=           -472.6053
 XXYZ=             -0.0000 YYXZ=             -0.0000 ZZXY=             -0.0000
 N-N= 3.715797960733D+01 E-N=-8.051444093010D+02  KE= 2.988721268430D+02
 Symmetry A1   KE= 1.805286422029D+02
 Symmetry A2   KE= 6.155615239943D+00
 Symmetry B1   KE= 1.145938474859D+01
 Symmetry B2   KE= 1.007284846516D+02
 1\1\GINC-HELIOS\SP\RCCSD-FC\Aug-CC-pVTZ\F3H1(2-)\POHL\07-May-2025\0\\#
  CCSD/aug-cc-pVTZ SP\\Single-point energy of X- + Y- at fixed distance
  R\\-2,1\F,0,0.,0.,9.\F,0,-1.139,0.,0.\H,0,0.,0.,0.\F,0,1.139,0.,0.\\V
 ersion=EM64L-G16RevB.01\State=1-A1\HF=-298.9702578\MP2=-299.8456314\MP
 3=-299.8222164\MP4D=-299.8380886\MP4DQ=-299.8280137\MP4SDQ=-299.839699
 1\CCSD=-299.833582\RMSD=5.620e-09\PG=C02V [C2(H1F1),SGV(F2)]\\@


 WOMEN HOLD UP HALF THE SKY. -- MAO TSE TUNG
 Job cpu time:       0 days  0 hours  3 minutes 53.3 seconds.
 Elapsed time:       0 days  0 hours  0 minutes 23.4 seconds.
 File lengths (MBytes):  RWF=    608 Int=      0 D2E=      0 Chk=      3 Scr=      1
 Normal termination of Gaussian 16 at Wed May  7 12:29:45 2025.
