 Entering Gaussian System, Link 0=g16
 Initial command:
 /opt/g16/l1.exe "/home/pohl/scratches/g16/Gau-1289918.inp" -scrdir="/home/pohl/scratches/g16/"
 Entering Link 1 = /opt/g16/l1.exe PID=   1289920.
  
 Copyright (c) 1988-2017, Gaussian, Inc.  All Rights Reserved.
  
 This is part of the Gaussian(R) 16 program.  It is based on
 the Gaussian(R) 09 system (copyright 2009, Gaussian, Inc.),
 the Gaussian(R) 03 system (copyright 2003, Gaussian, Inc.),
 the Gaussian(R) 98 system (copyright 1998, Gaussian, Inc.),
 the Gaussian(R) 94 system (copyright 1995, Gaussian, Inc.),
 the Gaussian 92(TM) system (copyright 1992, Gaussian, Inc.),
 the Gaussian 90(TM) system (copyright 1990, Gaussian, Inc.),
 the Gaussian 88(TM) system (copyright 1988, Gaussian, Inc.),
 the Gaussian 86(TM) system (copyright 1986, Carnegie Mellon
 University), and the Gaussian 82(TM) system (copyright 1983,
 Carnegie Mellon University). Gaussian is a federally registered
 trademark of Gaussian, Inc.
  
 This software contains proprietary and confidential information,
 including trade secrets, belonging to Gaussian, Inc.
  
 This software is provided under written license and may be
 used, copied, transmitted, or stored only in accord with that
 written license.
  
 The following legend is applicable only to US Government
 contracts under FAR:
  
                    RESTRICTED RIGHTS LEGEND
  
 Use, reproduction and disclosure by the US Government is
 subject to restrictions as set forth in subparagraphs (a)
 and (c) of the Commercial Computer Software - Restricted
 Rights clause in FAR 52.227-19.
  
 Gaussian, Inc.
 340 Quinnipiac St., Bldg. 40, Wallingford CT 06492
  
  
 ---------------------------------------------------------------
 Warning -- This program may not be used in any manner that
 competes with the business of Gaussian, Inc. or will provide
 assistance to any competitor of Gaussian, Inc.  The licensee
 of this program is prohibited from giving any competitor of
 Gaussian, Inc. access to this program.  By using this program,
 the user acknowledges that Gaussian, Inc. is engaged in the
 business of creating and licensing software in the field of
 computational chemistry and represents and warrants to the
 licensee that it is not a competitor of Gaussian, Inc. and that
 it will not use this program in any manner prohibited above.
 ---------------------------------------------------------------
  

 Cite this work as:
 Gaussian 16, Revision B.01,
 M. J. Frisch, G. W. Trucks, H. B. Schlegel, G. E. Scuseria, 
 M. A. Robb, J. R. Cheeseman, G. Scalmani, V. Barone, 
 G. A. Petersson, H. Nakatsuji, X. Li, M. Caricato, A. V. Marenich, 
 J. Bloino, B. G. Janesko, R. Gomperts, B. Mennucci, H. P. Hratchian, 
 J. V. Ortiz, A. F. Izmaylov, J. L. Sonnenberg, D. Williams-Young, 
 F. Ding, F. Lipparini, F. Egidi, J. Goings, B. Peng, A. Petrone, 
 T. Henderson, D. Ranasinghe, V. G. Zakrzewski, J. Gao, N. Rega, 
 G. Zheng, W. Liang, M. Hada, M. Ehara, K. Toyota, R. Fukuda, 
 J. Hasegawa, M. Ishida, T. Nakajima, Y. Honda, O. Kitao, H. Nakai, 
 T. Vreven, K. Throssell, J. A. Montgomery, Jr., J. E. Peralta, 
 F. Ogliaro, M. J. Bearpark, J. J. Heyd, E. N. Brothers, K. N. Kudin, 
 V. N. Staroverov, T. A. Keith, R. Kobayashi, J. Normand, 
 K. Raghavachari, A. P. Rendell, J. C. Burant, S. S. Iyengar, 
 J. Tomasi, M. Cossi, J. M. Millam, M. Klene, C. Adamo, R. Cammi, 
 J. W. Ochterski, R. L. Martin, K. Morokuma, O. Farkas, 
 J. B. Foresman, and D. J. Fox, Gaussian, Inc., Wallingford CT, 2016.
 
 ******************************************
 Gaussian 16:  EM64L-G16RevB.01 20-Dec-2017
                 7-May-2025 
 ******************************************
 %mem=30GB
 %nprocshared=10
 Will use up to   10 processors via shared memory.
 ---------------------
 # CCSD/aug-cc-pVTZ SP
 ---------------------
 1/38=1,172=1/1;
 2/12=2,17=6,18=5,40=1/2;
 3/5=16,6=1,7=10,11=9,25=1,30=1/1,2,3;
 4//1;
 5/5=2,38=5/2;
 8/6=4,9=120000,10=1/1,4;
 9/5=7/13;
 6/7=2,8=2,9=2,10=2/1;
 99/5=1,9=1/99;
 --------------------------------------------------
 Single-point energy of X- + Y- at fixed distance R
 --------------------------------------------------
 Symbolic Z-matrix:
 Charge = -2 Multiplicity = 1
 F                     0.        0.        9.5 
 F                    -1.139     0.        0. 
 H                     0.        0.        0. 
 F                     1.139     0.        0. 
 
                          Input orientation:                          
 ---------------------------------------------------------------------
 Center     Atomic      Atomic             Coordinates (Angstroms)
 Number     Number       Type             X           Y           Z
 ---------------------------------------------------------------------
      1          9           0        0.000000    0.000000    9.500000
      2          9           0       -1.139000    0.000000    0.000000
      3          1           0        0.000000    0.000000    0.000000
      4          9           0        1.139000    0.000000    0.000000
 ---------------------------------------------------------------------
                    Distance matrix (angstroms):
                    1          2          3          4
     1  F    0.000000
     2  F    9.568036   0.000000
     3  H    9.500000   1.139000   0.000000
     4  F    9.568036   2.278000   1.139000   0.000000
 Stoichiometry    F3H(2-)
 Framework group  C2V[C2(HF),SGV(F2)]
 Deg. of freedom     3
 Full point group                 C2V     NOp   4
 Largest Abelian subgroup         C2V     NOp   4
 Largest concise Abelian subgroup C2      NOp   2
                         Standard orientation:                         
 ---------------------------------------------------------------------
 Center     Atomic      Atomic             Coordinates (Angstroms)
 Number     Number       Type             X           Y           Z
 ---------------------------------------------------------------------
      1          9           0        0.000000    0.000000    6.446429
      2          9           0        0.000000    1.139000   -3.053571
      3          1           0        0.000000    0.000000   -3.053571
      4          9           0       -0.000000   -1.139000   -3.053571
 ---------------------------------------------------------------------
 Rotational constants (GHZ):          10.2523318           0.4383161           0.4203452
 Standard basis: Aug-CC-pVTZ (5D, 7F)
 There are    74 symmetry adapted cartesian basis functions of A1  symmetry.
 There are    25 symmetry adapted cartesian basis functions of A2  symmetry.
 There are    36 symmetry adapted cartesian basis functions of B1  symmetry.
 There are    55 symmetry adapted cartesian basis functions of B2  symmetry.
 There are    60 symmetry adapted basis functions of A1  symmetry.
 There are    23 symmetry adapted basis functions of A2  symmetry.
 There are    32 symmetry adapted basis functions of B1  symmetry.
 There are    46 symmetry adapted basis functions of B2  symmetry.
   161 basis functions,   243 primitive gaussians,   190 cartesian basis functions
    15 alpha electrons       15 beta electrons
       nuclear repulsion energy        36.6400104430 Hartrees.
 NAtoms=    4 NActive=    4 NUniq=    3 SFac= 1.78D+00 NAtFMM=   60 NAOKFM=F Big=F
 Integral buffers will be    131072 words long.
 Raffenetti 1 integral format.
 Two-electron integral symmetry is turned on.
 One-electron integrals computed using PRISM.
 NBasis=   161 RedAO= T EigKep=  2.93D-04  NBF=    60    23    32    46
 NBsUse=   161 1.00D-06 EigRej= -1.00D+00 NBFU=    60    23    32    46
 ExpMin= 2.53D-02 ExpMax= 1.95D+04 ExpMxC= 6.65D+02 IAcc=3 IRadAn=         5 AccDes= 0.00D+00
 Harris functional with IExCor=  205 and IRadAn=       5 diagonalized for initial guess.
 HarFok:  IExCor=  205 AccDes= 0.00D+00 IRadAn=         5 IDoV= 1 UseB2=F ITyADJ=14
 ICtDFT=  3500011 ScaDFX=  1.000000  1.000000  1.000000  1.000000
 FoFCou: FMM=F IPFlag=           0 FMFlag=      100000 FMFlg1=           0
         NFxFlg=           0 DoJE=T BraDBF=F KetDBF=T FulRan=T
         wScrn=  0.000000 ICntrl=       500 IOpCl=  0 I1Cent=   200000004 NGrid=           0
         NMat0=    1 NMatS0=      1 NMatT0=    0 NMatD0=    1 NMtDS0=    0 NMtDT0=    0
 Petite list used in FoFCou.
 Initial guess orbital symmetries:
       Occupied  (A1) (B2) (A1) (A1) (B2) (A1) (A1) (A1) (B1) (B2)
                 (B2) (A2) (B1) (B2) (A1)
       Virtual   (A1) (B2) (A1) (A1) (B1) (A1) (A1) (B2) (B1) (A1)
                 (A2) (B2) (B2) (B1) (A1) (A1) (A1) (B2) (B1) (A1)
                 (B1) (A2) (A1) (B2) (A1) (B2) (A2) (A1) (B1) (B2)
                 (A2) (A1) (A1) (B1) (B1) (B2) (A1) (A2) (B2) (B2)
                 (A1) (A1) (B1) (B2) (A1) (A1) (B1) (A1) (B2) (A2)
                 (B2) (B2) (A1) (A1) (B1) (A2) (B2) (B2) (A2) (B1)
                 (A2) (A1) (B2) (A1) (B1) (A1) (B1) (A1) (A2) (B2)
                 (B1) (A2) (A1) (B2) (B1) (B2) (A1) (A2) (B2) (A1)
                 (B1) (A1) (B2) (A2) (B2) (A1) (B2) (B1) (A1) (B1)
                 (A1) (A1) (B1) (A1) (A1) (B1) (B2) (A1) (B1) (A1)
                 (B2) (A2) (B2) (A2) (B2) (B2) (A1) (B1) (A1) (A2)
                 (B2) (B1) (A2) (A1) (B2) (B1) (B2) (A1) (A2) (B2)
                 (B1) (A1) (B2) (B1) (A2) (A1) (B2) (A1) (A2) (B2)
                 (B2) (A2) (A1) (B1) (B1) (A1) (B1) (A1) (A1) (A2)
                 (B2) (A1) (B2) (A1) (B2) (A1)
 The electronic state of the initial guess is 1-A1.
 Keep R1 ints in memory in symmetry-blocked form, NReq=106592091.
 Requested convergence on RMS density matrix=1.00D-08 within 128 cycles.
 Requested convergence on MAX density matrix=1.00D-06.
 Requested convergence on             energy=1.00D-06.
 No special actions if energy rises.
 SCF Done:  E(RHF) =  -298.973231166     A.U. after   10 cycles
            NFock= 10  Conv=0.55D-08     -V/T= 2.0003
 ExpMin= 2.53D-02 ExpMax= 1.95D+04 ExpMxC= 6.65D+02 IAcc=3 IRadAn=         5 AccDes= 0.00D+00
 HarFok:  IExCor=  205 AccDes= 0.00D+00 IRadAn=         5 IDoV=-2 UseB2=F ITyADJ=14
 ICtDFT= 12500011 ScaDFX=  1.000000  1.000000  1.000000  1.000000
 Range of M.O.s used for correlation:     4   161
 NBasis=   161 NAE=    15 NBE=    15 NFC=     3 NFV=     0
 NROrb=    158 NOA=    12 NOB=    12 NVA=   146 NVB=   146

 **** Warning!!: The largest alpha MO coefficient is  0.21642976D+02

 Semi-Direct transformation.
 ModeAB=           4 MOrb=            12 LenV=    4025783029
 LASXX=      5679395 LTotXX=     5679395 LenRXX=    11479218
 LTotAB=     5799823 MaxLAS=    14343240 LenRXY=           0
 NonZer=    17158613 LenScr=    26512384 LnRSAI=    14343240
 LnScr1=    22272000 LExtra=           0 Total=     74606842
 MaxDsk=          -1 SrtSym=           T ITran=            4
 JobTyp=0 Pass  1:  I=   1 to  12.
 (rs|ai) integrals will be sorted in core.
 Spin components of T(2) and E(2):
     alpha-alpha T2 =       0.2526579768D-01 E2=     -0.1154947317D+00
     alpha-beta  T2 =       0.1294532483D+00 E2=     -0.6443822205D+00
     beta-beta   T2 =       0.2526579768D-01 E2=     -0.1154947317D+00
 ANorm=    0.1086271073D+01
 E2 =    -0.8753716839D+00 EUMP2 =    -0.29984860285037D+03
 Keep R2 and R3 ints in memory in symmetry-blocked form, NReq=106598451.
 CIDS: In Core Option IDoMem=           1.
 Iterations=  50 Convergence= 0.100D-06
 Produce multiple copies of IABC intergrals
 Iteration Nr.   1
 **********************
 DD1Dir will call FoFMem   1 times, MxPair=       156
 NAB=    78 NAA=     0 NBB=     0.
 MP4(R+Q)=  0.10074998D-01
 E3=        0.23413516D-01        EUMP3=      -0.29982518933D+03
 E4(DQ)=   -0.57966596D-02        UMP4(DQ)=   -0.29983098599D+03
 E4(SDQ)=  -0.17481135D-01        UMP4(SDQ)=  -0.29984267047D+03
 DE(Corr)= -0.84100536     E(Corr)=     -299.81423653    
 NORM(A)=   0.10803593D+01
 Iteration Nr.   2
 **********************
 DD1Dir will call FoFMem   1 times, MxPair=       156
 NAB=    78 NAA=     0 NBB=     0.
 DE(Corr)= -0.86412281     E(CORR)=     -299.83735398     Delta=-2.31D-02
 NORM(A)=   0.10859363D+01
 Iteration Nr.   3
 **********************
 DD1Dir will call FoFMem   1 times, MxPair=       156
 NAB=    78 NAA=     0 NBB=     0.
 DE(Corr)= -0.86122896     E(CORR)=     -299.83446013     Delta= 2.89D-03
 NORM(A)=   0.10881175D+01
 Iteration Nr.   4
 **********************
 DD1Dir will call FoFMem   1 times, MxPair=       156
 NAB=    78 NAA=     0 NBB=     0.
 DE(Corr)= -0.86312396     E(CORR)=     -299.83635513     Delta=-1.89D-03
 NORM(A)=   0.10889605D+01
 Iteration Nr.   5
 **********************
 DD1Dir will call FoFMem   1 times, MxPair=       156
 NAB=    78 NAA=     0 NBB=     0.
 DE(Corr)= -0.86331671     E(CORR)=     -299.83654788     Delta=-1.93D-04
 NORM(A)=   0.10891455D+01
 Iteration Nr.   6
 **********************
 DD1Dir will call FoFMem   1 times, MxPair=       156
 NAB=    78 NAA=     0 NBB=     0.
 DE(Corr)= -0.86332474     E(CORR)=     -299.83655591     Delta=-8.03D-06
 NORM(A)=   0.10891997D+01
 Iteration Nr.   7
 **********************
 DD1Dir will call FoFMem   1 times, MxPair=       156
 NAB=    78 NAA=     0 NBB=     0.
 DE(Corr)= -0.86332265     E(CORR)=     -299.83655382     Delta= 2.09D-06
 NORM(A)=   0.10892043D+01
 Iteration Nr.   8
 **********************
 DD1Dir will call FoFMem   1 times, MxPair=       156
 NAB=    78 NAA=     0 NBB=     0.
 DE(Corr)= -0.86332461     E(CORR)=     -299.83655577     Delta=-1.96D-06
 NORM(A)=   0.10892067D+01
 Iteration Nr.   9
 **********************
 DD1Dir will call FoFMem   1 times, MxPair=       156
 NAB=    78 NAA=     0 NBB=     0.
 DE(Corr)= -0.86332238     E(CORR)=     -299.83655355     Delta= 2.22D-06
 NORM(A)=   0.10892078D+01
 Iteration Nr.  10
 **********************
 DD1Dir will call FoFMem   1 times, MxPair=       156
 NAB=    78 NAA=     0 NBB=     0.
 DE(Corr)= -0.86332334     E(CORR)=     -299.83655451     Delta=-9.60D-07
 NORM(A)=   0.10892078D+01
 Iteration Nr.  11
 **********************
 DD1Dir will call FoFMem   1 times, MxPair=       156
 NAB=    78 NAA=     0 NBB=     0.
 DE(Corr)= -0.86332288     E(CORR)=     -299.83655405     Delta= 4.57D-07
 NORM(A)=   0.10892078D+01
 Iteration Nr.  12
 **********************
 DD1Dir will call FoFMem   1 times, MxPair=       156
 NAB=    78 NAA=     0 NBB=     0.
 DE(Corr)= -0.86332298     E(CORR)=     -299.83655414     Delta=-9.03D-08
 NORM(A)=   0.10892078D+01
 Wavefunction amplitudes converged. E(Corr)=     -299.83655414    
 Largest amplitude= 3.68D-02
 Discarding MO integrals.

 **********************************************************************

            Population analysis using the SCF Density.

 **********************************************************************

 Orbital symmetries:
       Occupied  (B2) (A1) (A1) (A1) (B2) (A1) (A1) (B1) (A1) (A2)
                 (B2) (B2) (A1) (B2) (B1)
       Virtual   (A1) (B2) (B1) (A1) (A1) (A2) (B2) (B1) (B2) (A1)
                 (A1) (A1) (B2) (B1) (A1) (A1) (B2) (A1) (B1) (A1)
                 (A2) (B2) (B1) (A1) (A1) (A2) (B1) (B2) (A1) (A1)
                 (A2) (B2) (B1) (A1) (A2) (B2) (B2) (B1) (A1) (A1)
                 (B1) (B2) (A1) (B2) (A1) (B1) (A1) (A1) (A2) (B2)
                 (B2) (B2) (A1) (B1) (A1) (A2) (B2) (A2) (B2) (B1)
                 (A1) (A2) (B2) (B1) (A1) (A1) (A2) (B1) (B2) (A1)
                 (A2) (B2) (B1) (B2) (A1) (A2) (B1) (B2) (A1) (A1)
                 (B1) (A1) (B2) (A2) (B2) (A1) (B2) (B1) (A1) (B1)
                 (A1) (A1) (B1) (A1) (A1) (B2) (B1) (A1) (B1) (B2)
                 (A1) (A2) (B2) (A2) (B2) (B2) (A1) (B1) (A1) (A2)
                 (B2) (A2) (B2) (B1) (B2) (A1) (A2) (B1) (B2) (A1)
                 (B1) (A1) (B2) (A2) (B2) (A2) (B2) (B1) (A1) (B1)
                 (A1) (A1) (A2) (B1) (B2) (A1) (B1) (A1) (A1) (A2)
                 (B2) (A1) (B2) (A1) (B2) (A1)
 The electronic state is 1-A1.
 Alpha  occ. eigenvalues --  -25.90224 -25.90222 -25.77870  -1.20459  -1.15732
 Alpha  occ. eigenvalues --   -1.02103  -0.41374  -0.27593  -0.27585  -0.24943
 Alpha  occ. eigenvalues --   -0.24938  -0.22856  -0.12596  -0.12595  -0.12595
 Alpha virt. eigenvalues --    0.25068   0.35833   0.40986   0.41024   0.41514
 Alpha virt. eigenvalues --    0.48821   0.49008   0.49689   0.49694   0.49805
 Alpha virt. eigenvalues --    0.53274   0.54151   0.60104   0.67602   0.67736
 Alpha virt. eigenvalues --    0.77515   0.95937   0.97449   1.05490   1.05492
 Alpha virt. eigenvalues --    1.25497   1.25498   1.26378   1.26445   1.28320
 Alpha virt. eigenvalues --    1.28320   1.28363   1.28364   1.28379   1.32899
 Alpha virt. eigenvalues --    1.36844   1.36900   1.48144   1.48203   1.51166
 Alpha virt. eigenvalues --    1.51221   1.51438   1.52696   1.52697   1.53290
 Alpha virt. eigenvalues --    1.58083   1.58084   1.58146   1.63110   1.74803
 Alpha virt. eigenvalues --    2.05773   2.05827   2.10616   2.30906   2.30973
 Alpha virt. eigenvalues --    2.40930   2.90270   2.99227   3.15942   3.15942
 Alpha virt. eigenvalues --    3.17936   3.17958   3.21343   3.21343   3.26933
 Alpha virt. eigenvalues --    3.26933   3.28283   3.28283   3.31888   3.31913
 Alpha virt. eigenvalues --    3.33822   3.33822   3.33839   3.33839   3.33845
 Alpha virt. eigenvalues --    3.36410   3.36410   3.38656   3.38656   3.38673
 Alpha virt. eigenvalues --    3.38673   3.38683   3.38684   3.38687   3.45551
 Alpha virt. eigenvalues --    3.64725   3.64725   3.89178   3.89359   3.89387
 Alpha virt. eigenvalues --    3.95581   4.07008   4.25274   4.25300   4.54819
 Alpha virt. eigenvalues --    4.54819   4.78282   4.85145   4.85160   5.41267
 Alpha virt. eigenvalues --    5.68080   5.71084   5.71101   5.72720   5.72720
 Alpha virt. eigenvalues --    5.72737   5.81609   5.81630   6.41059   6.41070
 Alpha virt. eigenvalues --    7.52028   8.43170   9.19650   9.19650   9.20462
 Alpha virt. eigenvalues --    9.20462   9.22832   9.22832   9.32290   9.32290
 Alpha virt. eigenvalues --    9.32299   9.32299   9.32304   9.32304   9.32306
 Alpha virt. eigenvalues --    9.43353   9.43353   9.58850   9.60567   9.60577
 Alpha virt. eigenvalues --    9.69918   9.69918   9.71539   9.71550   9.75128
 Alpha virt. eigenvalues --    9.75128   9.80010   9.80010   9.80018   9.80018
 Alpha virt. eigenvalues --    9.80021   9.91103   9.91112  10.04063  10.10101
 Alpha virt. eigenvalues --   10.10110  10.44521  10.58028  11.02048  13.55700
 Alpha virt. eigenvalues --   15.44481
          Condensed to atoms (all electrons):
               1          2          3          4
     1  F    9.999999   0.000000   0.000000   0.000000
     2  F    0.000000   9.765092   0.092953  -0.102760
     3  H    0.000000   0.092953   0.303523   0.092953
     4  F    0.000000  -0.102760   0.092953   9.765092
 Mulliken charges:
               1
     1  F   -0.999999
     2  F   -0.755285
     3  H    0.510570
     4  F   -0.755285
 Sum of Mulliken charges =  -2.00000
 Mulliken charges with hydrogens summed into heavy atoms:
               1
     1  F   -0.999999
     2  F   -0.244715
     4  F   -0.755285
 Electronic spatial extent (au):  <R**2>=           2285.0557
 Charge=             -2.0000 electrons
 Dipole moment (field-independent basis, Debye):
    X=              0.0000    Y=             -0.0000    Z=            -16.2695  Tot=             16.2695
 Quadrupole moment (field-independent basis, Debye-Ang):
   XX=            -19.7419   YY=            -28.8860   ZZ=           -265.3063
   XY=             -0.0000   XZ=             -0.0000   YZ=             -0.0000
 Traceless Quadrupole moment (field-independent basis, Debye-Ang):
   XX=             84.9028   YY=             75.7588   ZZ=           -160.6616
   XY=             -0.0000   XZ=             -0.0000   YZ=             -0.0000
 Octapole moment (field-independent basis, Debye-Ang**2):
  XXX=              0.0000  YYY=             -0.0000  ZZZ=          -1177.8323  XYY=              0.0000
  XXY=             -0.0000  XXZ=             -7.8247  XZZ=              0.0000  YZZ=             -0.0000
  YYZ=             20.2018  XYZ=              0.0000
 Hexadecapole moment (field-independent basis, Debye-Ang**3):
 XXXX=            -18.2154 YYYY=           -122.7269 ZZZZ=         -11290.1871 XXXY=             -0.0000
 XXXZ=             -0.0000 YYYX=             -0.0000 YYYZ=             -0.0000 ZZZX=             -0.0000
 ZZZY=              0.0000 XXYY=            -22.1111 XXZZ=           -421.8690 YYZZ=           -523.7832
 XXYZ=              0.0000 YYXZ=             -0.0000 ZZXY=             -0.0000
 N-N= 3.664001044299D+01 E-N=-8.040250165733D+02  KE= 2.988722023998D+02
 Symmetry A1   KE= 1.805278031330D+02
 Symmetry A2   KE= 6.155805737610D+00
 Symmetry B1   KE= 1.145979788385D+01
 Symmetry B2   KE= 1.007287956454D+02
 1\1\GINC-HELIOS\SP\RCCSD-FC\Aug-CC-pVTZ\F3H1(2-)\POHL\07-May-2025\0\\#
  CCSD/aug-cc-pVTZ SP\\Single-point energy of X- + Y- at fixed distance
  R\\-2,1\F,0,0.,0.,9.5\F,0,-1.139,0.,0.\H,0,0.,0.,0.\F,0,1.139,0.,0.\\
 Version=EM64L-G16RevB.01\State=1-A1\HF=-298.9732312\MP2=-299.8486029\M
 P3=-299.8251893\MP4D=-299.841061\MP4DQ=-299.830986\MP4SDQ=-299.8426705
 \CCSD=-299.8365541\RMSD=5.537e-09\PG=C02V [C2(H1F1),SGV(F2)]\\@


 WHEN ALL ELSE FAILS, LOOK AT THE SCHRODINGER EQUATION.
     -- RUSSELL T. PACK, APRIL 1978
 Job cpu time:       0 days  0 hours  3 minutes 58.8 seconds.
 Elapsed time:       0 days  0 hours  0 minutes 24.0 seconds.
 File lengths (MBytes):  RWF=    607 Int=      0 D2E=      0 Chk=      3 Scr=      1
 Normal termination of Gaussian 16 at Wed May  7 12:30:10 2025.
