 Entering Gaussian System, Link 0=g16
 Initial command:
 /opt/g16/l1.exe "/home/pohl/scratches/g16/Gau-1290051.inp" -scrdir="/home/pohl/scratches/g16/"
 Entering Link 1 = /opt/g16/l1.exe PID=   1290053.
  
 Copyright (c) 1988-2017, Gaussian, Inc.  All Rights Reserved.
  
 This is part of the Gaussian(R) 16 program.  It is based on
 the Gaussian(R) 09 system (copyright 2009, Gaussian, Inc.),
 the Gaussian(R) 03 system (copyright 2003, Gaussian, Inc.),
 the Gaussian(R) 98 system (copyright 1998, Gaussian, Inc.),
 the Gaussian(R) 94 system (copyright 1995, Gaussian, Inc.),
 the Gaussian 92(TM) system (copyright 1992, Gaussian, Inc.),
 the Gaussian 90(TM) system (copyright 1990, Gaussian, Inc.),
 the Gaussian 88(TM) system (copyright 1988, Gaussian, Inc.),
 the Gaussian 86(TM) system (copyright 1986, Carnegie Mellon
 University), and the Gaussian 82(TM) system (copyright 1983,
 Carnegie Mellon University). Gaussian is a federally registered
 trademark of Gaussian, Inc.
  
 This software contains proprietary and confidential information,
 including trade secrets, belonging to Gaussian, Inc.
  
 This software is provided under written license and may be
 used, copied, transmitted, or stored only in accord with that
 written license.
  
 The following legend is applicable only to US Government
 contracts under FAR:
  
                    RESTRICTED RIGHTS LEGEND
  
 Use, reproduction and disclosure by the US Government is
 subject to restrictions as set forth in subparagraphs (a)
 and (c) of the Commercial Computer Software - Restricted
 Rights clause in FAR 52.227-19.
  
 Gaussian, Inc.
 340 Quinnipiac St., Bldg. 40, Wallingford CT 06492
  
  
 ---------------------------------------------------------------
 Warning -- This program may not be used in any manner that
 competes with the business of Gaussian, Inc. or will provide
 assistance to any competitor of Gaussian, Inc.  The licensee
 of this program is prohibited from giving any competitor of
 Gaussian, Inc. access to this program.  By using this program,
 the user acknowledges that Gaussian, Inc. is engaged in the
 business of creating and licensing software in the field of
 computational chemistry and represents and warrants to the
 licensee that it is not a competitor of Gaussian, Inc. and that
 it will not use this program in any manner prohibited above.
 ---------------------------------------------------------------
  

 Cite this work as:
 Gaussian 16, Revision B.01,
 M. J. Frisch, G. W. Trucks, H. B. Schlegel, G. E. Scuseria, 
 M. A. Robb, J. R. Cheeseman, G. Scalmani, V. Barone, 
 G. A. Petersson, H. Nakatsuji, X. Li, M. Caricato, A. V. Marenich, 
 J. Bloino, B. G. Janesko, R. Gomperts, B. Mennucci, H. P. Hratchian, 
 J. V. Ortiz, A. F. Izmaylov, J. L. Sonnenberg, D. Williams-Young, 
 F. Ding, F. Lipparini, F. Egidi, J. Goings, B. Peng, A. Petrone, 
 T. Henderson, D. Ranasinghe, V. G. Zakrzewski, J. Gao, N. Rega, 
 G. Zheng, W. Liang, M. Hada, M. Ehara, K. Toyota, R. Fukuda, 
 J. Hasegawa, M. Ishida, T. Nakajima, Y. Honda, O. Kitao, H. Nakai, 
 T. Vreven, K. Throssell, J. A. Montgomery, Jr., J. E. Peralta, 
 F. Ogliaro, M. J. Bearpark, J. J. Heyd, E. N. Brothers, K. N. Kudin, 
 V. N. Staroverov, T. A. Keith, R. Kobayashi, J. Normand, 
 K. Raghavachari, A. P. Rendell, J. C. Burant, S. S. Iyengar, 
 J. Tomasi, M. Cossi, J. M. Millam, M. Klene, C. Adamo, R. Cammi, 
 J. W. Ochterski, R. L. Martin, K. Morokuma, O. Farkas, 
 J. B. Foresman, and D. J. Fox, Gaussian, Inc., Wallingford CT, 2016.
 
 ******************************************
 Gaussian 16:  EM64L-G16RevB.01 20-Dec-2017
                 7-May-2025 
 ******************************************
 %mem=30GB
 %nprocshared=10
 Will use up to   10 processors via shared memory.
 ---------------------
 # CCSD/aug-cc-pVTZ SP
 ---------------------
 1/38=1,172=1/1;
 2/12=2,17=6,18=5,40=1/2;
 3/5=16,6=1,7=10,11=9,25=1,30=1/1,2,3;
 4//1;
 5/5=2,38=5/2;
 8/6=4,9=120000,10=1/1,4;
 9/5=7/13;
 6/7=2,8=2,9=2,10=2/1;
 99/5=1,9=1/99;
 --------------------------------------------------
 Single-point energy of X- + Y- at fixed distance R
 --------------------------------------------------
 Symbolic Z-matrix:
 Charge = -2 Multiplicity = 1
 F                     0.        0.        10. 
 F                    -1.139     0.        0. 
 H                     0.        0.        0. 
 F                     1.139     0.        0. 
 
                          Input orientation:                          
 ---------------------------------------------------------------------
 Center     Atomic      Atomic             Coordinates (Angstroms)
 Number     Number       Type             X           Y           Z
 ---------------------------------------------------------------------
      1          9           0        0.000000    0.000000   10.000000
      2          9           0       -1.139000    0.000000    0.000000
      3          1           0        0.000000    0.000000    0.000000
      4          9           0        1.139000    0.000000    0.000000
 ---------------------------------------------------------------------
                    Distance matrix (angstroms):
                    1          2          3          4
     1  F    0.000000
     2  F   10.064657   0.000000
     3  H   10.000000   1.139000   0.000000
     4  F   10.064657   2.278000   1.139000   0.000000
 Stoichiometry    F3H(2-)
 Framework group  C2V[C2(HF),SGV(F2)]
 Deg. of freedom     3
 Full point group                 C2V     NOp   4
 Largest Abelian subgroup         C2V     NOp   4
 Largest concise Abelian subgroup C2      NOp   2
                         Standard orientation:                         
 ---------------------------------------------------------------------
 Center     Atomic      Atomic             Coordinates (Angstroms)
 Number     Number       Type             X           Y           Z
 ---------------------------------------------------------------------
      1          9           0       -0.000000    0.000000    6.785714
      2          9           0        0.000000    1.139000   -3.214286
      3          1           0        0.000000   -0.000000   -3.214286
      4          9           0       -0.000000   -1.139000   -3.214286
 ---------------------------------------------------------------------
 Rotational constants (GHZ):          10.2523318           0.3955803           0.3808841
 Standard basis: Aug-CC-pVTZ (5D, 7F)
 There are    74 symmetry adapted cartesian basis functions of A1  symmetry.
 There are    25 symmetry adapted cartesian basis functions of A2  symmetry.
 There are    36 symmetry adapted cartesian basis functions of B1  symmetry.
 There are    55 symmetry adapted cartesian basis functions of B2  symmetry.
 There are    60 symmetry adapted basis functions of A1  symmetry.
 There are    23 symmetry adapted basis functions of A2  symmetry.
 There are    32 symmetry adapted basis functions of B1  symmetry.
 There are    46 symmetry adapted basis functions of B2  symmetry.
   161 basis functions,   243 primitive gaussians,   190 cartesian basis functions
    15 alpha electrons       15 beta electrons
       nuclear repulsion energy        36.1728456167 Hartrees.
 NAtoms=    4 NActive=    4 NUniq=    3 SFac= 1.78D+00 NAtFMM=   60 NAOKFM=F Big=F
 Integral buffers will be    131072 words long.
 Raffenetti 1 integral format.
 Two-electron integral symmetry is turned on.
 One-electron integrals computed using PRISM.
 NBasis=   161 RedAO= T EigKep=  2.93D-04  NBF=    60    23    32    46
 NBsUse=   161 1.00D-06 EigRej= -1.00D+00 NBFU=    60    23    32    46
 ExpMin= 2.53D-02 ExpMax= 1.95D+04 ExpMxC= 6.65D+02 IAcc=3 IRadAn=         5 AccDes= 0.00D+00
 Harris functional with IExCor=  205 and IRadAn=       5 diagonalized for initial guess.
 HarFok:  IExCor=  205 AccDes= 0.00D+00 IRadAn=         5 IDoV= 1 UseB2=F ITyADJ=14
 ICtDFT=  3500011 ScaDFX=  1.000000  1.000000  1.000000  1.000000
 FoFCou: FMM=F IPFlag=           0 FMFlag=      100000 FMFlg1=           0
         NFxFlg=           0 DoJE=T BraDBF=F KetDBF=T FulRan=T
         wScrn=  0.000000 ICntrl=       500 IOpCl=  0 I1Cent=   200000004 NGrid=           0
         NMat0=    1 NMatS0=      1 NMatT0=    0 NMatD0=    1 NMtDS0=    0 NMtDT0=    0
 Petite list used in FoFCou.
 Initial guess orbital symmetries:
       Occupied  (A1) (B2) (A1) (A1) (B2) (A1) (A1) (B1) (A1) (B2)
                 (A2) (B2) (A1) (B1) (B2)
       Virtual   (A1) (B2) (A1) (A1) (B1) (A1) (A1) (B2) (B1) (A1)
                 (A2) (B2) (B2) (B1) (A1) (A1) (A1) (B2) (B1) (A1)
                 (B1) (A1) (B2) (A2) (A1) (B2) (A2) (A1) (B1) (B2)
                 (A2) (A1) (A1) (B1) (B2) (B1) (A1) (A2) (B2) (B2)
                 (A1) (A1) (B1) (B2) (A1) (A1) (B1) (A1) (B2) (A2)
                 (B2) (B2) (A1) (A1) (B1) (B2) (A2) (B2) (A2) (B1)
                 (A1) (B2) (A2) (A1) (B1) (A1) (B1) (A1) (A2) (B2)
                 (B2) (B1) (A1) (A2) (A1) (B1) (B2) (A2) (B2) (A1)
                 (B1) (A1) (B2) (A2) (B2) (A1) (B2) (B1) (A1) (B1)
                 (A1) (A1) (B1) (A1) (A1) (B2) (B1) (A1) (B1) (A1)
                 (B2) (A2) (B2) (A2) (B2) (B2) (A1) (B1) (A1) (A2)
                 (B2) (B2) (B1) (A1) (A2) (A1) (B1) (B2) (A2) (B2)
                 (B1) (A1) (B2) (B1) (B2) (A2) (A1) (A1) (A2) (B2)
                 (B2) (A2) (A1) (B1) (B1) (A1) (B1) (A1) (A1) (A2)
                 (B2) (A1) (B2) (A1) (B2) (A1)
 The electronic state of the initial guess is 1-A1.
 Keep R1 ints in memory in symmetry-blocked form, NReq=106592091.
 Requested convergence on RMS density matrix=1.00D-08 within 128 cycles.
 Requested convergence on MAX density matrix=1.00D-06.
 Requested convergence on             energy=1.00D-06.
 No special actions if energy rises.
 SCF Done:  E(RHF) =  -298.975918754     A.U. after   10 cycles
            NFock= 10  Conv=0.55D-08     -V/T= 2.0003
 ExpMin= 2.53D-02 ExpMax= 1.95D+04 ExpMxC= 6.65D+02 IAcc=3 IRadAn=         5 AccDes= 0.00D+00
 HarFok:  IExCor=  205 AccDes= 0.00D+00 IRadAn=         5 IDoV=-2 UseB2=F ITyADJ=14
 ICtDFT= 12500011 ScaDFX=  1.000000  1.000000  1.000000  1.000000
 Range of M.O.s used for correlation:     4   161
 NBasis=   161 NAE=    15 NBE=    15 NFC=     3 NFV=     0
 NROrb=    158 NOA=    12 NOB=    12 NVA=   146 NVB=   146

 **** Warning!!: The largest alpha MO coefficient is  0.21649225D+02

 Semi-Direct transformation.
 ModeAB=           4 MOrb=            12 LenV=    4025783919
 LASXX=      5679395 LTotXX=     5679395 LenRXX=    11479218
 LTotAB=     5799823 MaxLAS=    14187768 LenRXY=           0
 NonZer=    17158613 LenScr=    26512384 LnRSAI=    14187768
 LnScr1=    22034432 LExtra=           0 Total=     74213802
 MaxDsk=          -1 SrtSym=           T ITran=            4
 JobTyp=0 Pass  1:  I=   1 to  12.
 (rs|ai) integrals will be sorted in core.
 Spin components of T(2) and E(2):
     alpha-alpha T2 =       0.2526550567D-01 E2=     -0.1154945048D+00
     alpha-beta  T2 =       0.1294518890D+00 E2=     -0.6443813570D+00
     beta-beta   T2 =       0.2526550567D-01 E2=     -0.1154945048D+00
 ANorm=    0.1086270178D+01
 E2 =    -0.8753703666D+00 EUMP2 =    -0.29985128912074D+03
 Keep R2 and R3 ints in memory in symmetry-blocked form, NReq=106598451.
 CIDS: In Core Option IDoMem=           1.
 Iterations=  50 Convergence= 0.100D-06
 Produce multiple copies of IABC intergrals
 Iteration Nr.   1
 **********************
 DD1Dir will call FoFMem   1 times, MxPair=       156
 NAB=    78 NAA=     0 NBB=     0.
 MP4(R+Q)=  0.10075095D-01
 E3=        0.23412435D-01        EUMP3=      -0.29982787669D+03
 E4(DQ)=   -0.57962042D-02        UMP4(DQ)=   -0.29983367289D+03
 E4(SDQ)=  -0.17480019D-01        UMP4(SDQ)=  -0.29984535671D+03
 DE(Corr)= -0.84100515     E(Corr)=     -299.81692390    
 NORM(A)=   0.10803581D+01
 Iteration Nr.   2
 **********************
 DD1Dir will call FoFMem   1 times, MxPair=       156
 NAB=    78 NAA=     0 NBB=     0.
 DE(Corr)= -0.86412176     E(CORR)=     -299.84004052     Delta=-2.31D-02
 NORM(A)=   0.10859351D+01
 Iteration Nr.   3
 **********************
 DD1Dir will call FoFMem   1 times, MxPair=       156
 NAB=    78 NAA=     0 NBB=     0.
 DE(Corr)= -0.86122836     E(CORR)=     -299.83714712     Delta= 2.89D-03
 NORM(A)=   0.10881157D+01
 Iteration Nr.   4
 **********************
 DD1Dir will call FoFMem   1 times, MxPair=       156
 NAB=    78 NAA=     0 NBB=     0.
 DE(Corr)= -0.86312316     E(CORR)=     -299.83904191     Delta=-1.89D-03
 NORM(A)=   0.10889586D+01
 Iteration Nr.   5
 **********************
 DD1Dir will call FoFMem   1 times, MxPair=       156
 NAB=    78 NAA=     0 NBB=     0.
 DE(Corr)= -0.86331587     E(CORR)=     -299.83923462     Delta=-1.93D-04
 NORM(A)=   0.10891435D+01
 Iteration Nr.   6
 **********************
 DD1Dir will call FoFMem   1 times, MxPair=       156
 NAB=    78 NAA=     0 NBB=     0.
 DE(Corr)= -0.86332388     E(CORR)=     -299.83924264     Delta=-8.02D-06
 NORM(A)=   0.10891976D+01
 Iteration Nr.   7
 **********************
 DD1Dir will call FoFMem   1 times, MxPair=       156
 NAB=    78 NAA=     0 NBB=     0.
 DE(Corr)= -0.86332180     E(CORR)=     -299.83924055     Delta= 2.08D-06
 NORM(A)=   0.10892022D+01
 Iteration Nr.   8
 **********************
 DD1Dir will call FoFMem   1 times, MxPair=       156
 NAB=    78 NAA=     0 NBB=     0.
 DE(Corr)= -0.86332345     E(CORR)=     -299.83924220     Delta=-1.65D-06
 NORM(A)=   0.10892045D+01
 Iteration Nr.   9
 **********************
 DD1Dir will call FoFMem   1 times, MxPair=       156
 NAB=    78 NAA=     0 NBB=     0.
 DE(Corr)= -0.86332156     E(CORR)=     -299.83924031     Delta= 1.89D-06
 NORM(A)=   0.10892055D+01
 Iteration Nr.  10
 **********************
 DD1Dir will call FoFMem   1 times, MxPair=       156
 NAB=    78 NAA=     0 NBB=     0.
 DE(Corr)= -0.86332238     E(CORR)=     -299.83924113     Delta=-8.17D-07
 NORM(A)=   0.10892055D+01
 Iteration Nr.  11
 **********************
 DD1Dir will call FoFMem   1 times, MxPair=       156
 NAB=    78 NAA=     0 NBB=     0.
 DE(Corr)= -0.86332203     E(CORR)=     -299.83924079     Delta= 3.45D-07
 NORM(A)=   0.10892055D+01
 Iteration Nr.  12
 **********************
 DD1Dir will call FoFMem   1 times, MxPair=       156
 NAB=    78 NAA=     0 NBB=     0.
 DE(Corr)= -0.86332213     E(CORR)=     -299.83924088     Delta=-9.51D-08
 NORM(A)=   0.10892055D+01
 Wavefunction amplitudes converged. E(Corr)=     -299.83924088    
 Largest amplitude= 3.68D-02
 Discarding MO integrals.

 **********************************************************************

            Population analysis using the SCF Density.

 **********************************************************************

 Orbital symmetries:
       Occupied  (B2) (A1) (A1) (A1) (B2) (A1) (A1) (B1) (A1) (A2)
                 (B2) (B2) (A1) (B2) (B1)
       Virtual   (A1) (B2) (B1) (A1) (A1) (A2) (B2) (B1) (B2) (A1)
                 (A1) (A1) (B2) (B1) (A1) (A1) (B2) (A1) (B1) (A1)
                 (A2) (B2) (B1) (A1) (A1) (A2) (B1) (B2) (A1) (A1)
                 (A2) (B2) (B1) (A1) (A2) (B2) (B2) (B1) (A1) (A1)
                 (B1) (B2) (A1) (B2) (A1) (B1) (A1) (A1) (A2) (B2)
                 (B2) (B2) (A1) (B1) (A1) (A2) (B2) (A2) (B2) (B1)
                 (A1) (A2) (B2) (B1) (A1) (A1) (A2) (B1) (B2) (A1)
                 (A2) (B2) (B1) (B2) (A1) (A2) (B1) (B2) (A1) (A1)
                 (B1) (A1) (B2) (A2) (B2) (A1) (B2) (B1) (A1) (B1)
                 (A1) (A1) (B1) (A1) (A1) (B2) (B1) (A1) (B1) (B2)
                 (A1) (A2) (B2) (A2) (B2) (B2) (A1) (B1) (A1) (A2)
                 (B2) (A2) (B2) (B1) (B2) (A1) (A2) (B1) (B2) (A1)
                 (B1) (A1) (B2) (A2) (B2) (A2) (B2) (B1) (A1) (B1)
                 (A1) (A1) (A2) (B1) (B2) (A1) (B1) (A1) (A1) (A2)
                 (B2) (A1) (B2) (A1) (B2) (A1)
 The electronic state is 1-A1.
 Alpha  occ. eigenvalues --  -25.90494 -25.90492 -25.78138  -1.20730  -1.16002
 Alpha  occ. eigenvalues --   -1.02370  -0.41645  -0.27863  -0.27856  -0.25213
 Alpha  occ. eigenvalues --   -0.25209  -0.23125  -0.12864  -0.12863  -0.12863
 Alpha virt. eigenvalues --    0.24799   0.35597   0.40729   0.40774   0.41215
 Alpha virt. eigenvalues --    0.48565   0.48728   0.49430   0.49433   0.49539
 Alpha virt. eigenvalues --    0.53004   0.53857   0.59841   0.67336   0.67452
 Alpha virt. eigenvalues --    0.77245   0.95671   0.97176   1.05214   1.05215
 Alpha virt. eigenvalues --    1.25225   1.25226   1.26114   1.26172   1.28055
 Alpha virt. eigenvalues --    1.28055   1.28093   1.28094   1.28107   1.32629
 Alpha virt. eigenvalues --    1.36582   1.36631   1.47876   1.47927   1.50896
 Alpha virt. eigenvalues --    1.50943   1.51172   1.52423   1.52424   1.53026
 Alpha virt. eigenvalues --    1.57817   1.57818   1.57867   1.62842   1.74529
 Alpha virt. eigenvalues --    2.05504   2.05551   2.10347   2.30640   2.30697
 Alpha virt. eigenvalues --    2.40658   2.90000   2.98954   3.15670   3.15670
 Alpha virt. eigenvalues --    3.17666   3.17686   3.21071   3.21071   3.26661
 Alpha virt. eigenvalues --    3.26661   3.28012   3.28012   3.31620   3.31641
 Alpha virt. eigenvalues --    3.33555   3.33555   3.33570   3.33571   3.33576
 Alpha virt. eigenvalues --    3.36140   3.36140   3.38390   3.38390   3.38405
 Alpha virt. eigenvalues --    3.38405   3.38414   3.38414   3.38417   3.45282
 Alpha virt. eigenvalues --    3.64454   3.64454   3.88912   3.89092   3.89116
 Alpha virt. eigenvalues --    3.95311   4.06738   4.25005   4.25028   4.54547
 Alpha virt. eigenvalues --    4.54547   4.78009   4.84874   4.84888   5.40997
 Alpha virt. eigenvalues --    5.67810   5.70814   5.70829   5.72453   5.72453
 Alpha virt. eigenvalues --    5.72466   5.81340   5.81358   6.40789   6.40799
 Alpha virt. eigenvalues --    7.51758   8.42899   9.19379   9.19379   9.20191
 Alpha virt. eigenvalues --    9.20191   9.22561   9.22561   9.32023   9.32023
 Alpha virt. eigenvalues --    9.32031   9.32031   9.32035   9.32036   9.32037
 Alpha virt. eigenvalues --    9.43082   9.43082   9.58579   9.60297   9.60306
 Alpha virt. eigenvalues --    9.69647   9.69647   9.71271   9.71280   9.74858
 Alpha virt. eigenvalues --    9.74858   9.79743   9.79743   9.79750   9.79750
 Alpha virt. eigenvalues --    9.79753   9.90833   9.90841  10.03792  10.09832
 Alpha virt. eigenvalues --   10.09839  10.44252  10.57758  11.01779  13.55431
 Alpha virt. eigenvalues --   15.44209
          Condensed to atoms (all electrons):
               1          2          3          4
     1  F   10.000000  -0.000000   0.000000  -0.000000
     2  F   -0.000000   9.764930   0.092860  -0.102557
     3  H    0.000000   0.092860   0.303813   0.092860
     4  F   -0.000000  -0.102557   0.092860   9.764930
 Mulliken charges:
               1
     1  F   -1.000000
     2  F   -0.755233
     3  H    0.510466
     4  F   -0.755233
 Sum of Mulliken charges =  -2.00000
 Mulliken charges with hydrogens summed into heavy atoms:
               1
     1  F   -1.000000
     2  F   -0.244767
     4  F   -0.755233
 Electronic spatial extent (au):  <R**2>=           2517.2789
 Charge=             -2.0000 electrons
 Dipole moment (field-independent basis, Debye):
    X=              0.0000    Y=              0.0000    Z=            -17.1299  Tot=             17.1299
 Quadrupole moment (field-independent basis, Debye-Ang):
   XX=            -19.7411   YY=            -28.8821   ZZ=           -291.6542
   XY=             -0.0000   XZ=             -0.0000   YZ=              0.0000
 Traceless Quadrupole moment (field-independent basis, Debye-Ang):
   XX=             93.6847   YY=             84.5437   ZZ=           -178.2284
   XY=             -0.0000   XZ=             -0.0000   YZ=              0.0000
 Octapole moment (field-independent basis, Debye-Ang**2):
  XXX=              0.0000  YYY=              0.0000  ZZZ=          -1370.3961  XYY=              0.0000
  XXY=             -0.0000  XXZ=             -8.2373  XZZ=              0.0000  YZZ=             -0.0000
  YYZ=             21.2392  XYZ=              0.0000
 Hexadecapole moment (field-independent basis, Debye-Ang**3):
 XXXX=            -18.2116 YYYY=           -122.7022 ZZZZ=         -13547.0448 XXXY=             -0.0000
 XXXZ=             -0.0000 YYYX=             -0.0000 YYYZ=              0.0000 ZZZX=             -0.0000
 ZZZY=              0.0000 XXYY=            -22.1076 XXZZ=           -466.6735 YYZZ=           -577.7389
 XXYZ=              0.0000 YYXZ=             -0.0000 ZZXY=             -0.0000
 N-N= 3.617284561674D+01 E-N=-8.030152664358D+02  KE= 2.988722619812D+02
 Symmetry A1   KE= 1.805271116280D+02
 Symmetry A2   KE= 6.155961473135D+00
 Symmetry B1   KE= 1.146013648684D+01
 Symmetry B2   KE= 1.007290523932D+02
 1\1\GINC-HELIOS\SP\RCCSD-FC\Aug-CC-pVTZ\F3H1(2-)\POHL\07-May-2025\0\\#
  CCSD/aug-cc-pVTZ SP\\Single-point energy of X- + Y- at fixed distance
  R\\-2,1\F,0,0.,0.,10.\F,0,-1.139,0.,0.\H,0,0.,0.,0.\F,0,1.139,0.,0.\\
 Version=EM64L-G16RevB.01\State=1-A1\HF=-298.9759188\MP2=-299.8512891\M
 P3=-299.8278767\MP4D=-299.843748\MP4DQ=-299.8336729\MP4SDQ=-299.845356
 7\CCSD=-299.8392409\RMSD=5.472e-09\PG=C02V [C2(H1F1),SGV(F2)]\\@


 THERE IS NO SUBJECT, HOWEVER COMPLEX,
 WHICH, IF STUDIED WITH PATIENCE AND INTELLIGIENCE
 WILL NOT BECOME
 MORE COMPLEX
                        QUOTED BY D. GORDON ROHMAN
 Job cpu time:       0 days  0 hours  4 minutes 15.4 seconds.
 Elapsed time:       0 days  0 hours  0 minutes 25.7 seconds.
 File lengths (MBytes):  RWF=    604 Int=      0 D2E=      0 Chk=      3 Scr=      1
 Normal termination of Gaussian 16 at Wed May  7 12:30:36 2025.
