 Entering Gaussian System, Link 0=g16
 Initial command:
 /opt/g16/l1.exe "/home/pohl/scratches/g16/Gau-1290316.inp" -scrdir="/home/pohl/scratches/g16/"
 Entering Link 1 = /opt/g16/l1.exe PID=   1290318.
  
 Copyright (c) 1988-2017, Gaussian, Inc.  All Rights Reserved.
  
 This is part of the Gaussian(R) 16 program.  It is based on
 the Gaussian(R) 09 system (copyright 2009, Gaussian, Inc.),
 the Gaussian(R) 03 system (copyright 2003, Gaussian, Inc.),
 the Gaussian(R) 98 system (copyright 1998, Gaussian, Inc.),
 the Gaussian(R) 94 system (copyright 1995, Gaussian, Inc.),
 the Gaussian 92(TM) system (copyright 1992, Gaussian, Inc.),
 the Gaussian 90(TM) system (copyright 1990, Gaussian, Inc.),
 the Gaussian 88(TM) system (copyright 1988, Gaussian, Inc.),
 the Gaussian 86(TM) system (copyright 1986, Carnegie Mellon
 University), and the Gaussian 82(TM) system (copyright 1983,
 Carnegie Mellon University). Gaussian is a federally registered
 trademark of Gaussian, Inc.
  
 This software contains proprietary and confidential information,
 including trade secrets, belonging to Gaussian, Inc.
  
 This software is provided under written license and may be
 used, copied, transmitted, or stored only in accord with that
 written license.
  
 The following legend is applicable only to US Government
 contracts under FAR:
  
                    RESTRICTED RIGHTS LEGEND
  
 Use, reproduction and disclosure by the US Government is
 subject to restrictions as set forth in subparagraphs (a)
 and (c) of the Commercial Computer Software - Restricted
 Rights clause in FAR 52.227-19.
  
 Gaussian, Inc.
 340 Quinnipiac St., Bldg. 40, Wallingford CT 06492
  
  
 ---------------------------------------------------------------
 Warning -- This program may not be used in any manner that
 competes with the business of Gaussian, Inc. or will provide
 assistance to any competitor of Gaussian, Inc.  The licensee
 of this program is prohibited from giving any competitor of
 Gaussian, Inc. access to this program.  By using this program,
 the user acknowledges that Gaussian, Inc. is engaged in the
 business of creating and licensing software in the field of
 computational chemistry and represents and warrants to the
 licensee that it is not a competitor of Gaussian, Inc. and that
 it will not use this program in any manner prohibited above.
 ---------------------------------------------------------------
  

 Cite this work as:
 Gaussian 16, Revision B.01,
 M. J. Frisch, G. W. Trucks, H. B. Schlegel, G. E. Scuseria, 
 M. A. Robb, J. R. Cheeseman, G. Scalmani, V. Barone, 
 G. A. Petersson, H. Nakatsuji, X. Li, M. Caricato, A. V. Marenich, 
 J. Bloino, B. G. Janesko, R. Gomperts, B. Mennucci, H. P. Hratchian, 
 J. V. Ortiz, A. F. Izmaylov, J. L. Sonnenberg, D. Williams-Young, 
 F. Ding, F. Lipparini, F. Egidi, J. Goings, B. Peng, A. Petrone, 
 T. Henderson, D. Ranasinghe, V. G. Zakrzewski, J. Gao, N. Rega, 
 G. Zheng, W. Liang, M. Hada, M. Ehara, K. Toyota, R. Fukuda, 
 J. Hasegawa, M. Ishida, T. Nakajima, Y. Honda, O. Kitao, H. Nakai, 
 T. Vreven, K. Throssell, J. A. Montgomery, Jr., J. E. Peralta, 
 F. Ogliaro, M. J. Bearpark, J. J. Heyd, E. N. Brothers, K. N. Kudin, 
 V. N. Staroverov, T. A. Keith, R. Kobayashi, J. Normand, 
 K. Raghavachari, A. P. Rendell, J. C. Burant, S. S. Iyengar, 
 J. Tomasi, M. Cossi, J. M. Millam, M. Klene, C. Adamo, R. Cammi, 
 J. W. Ochterski, R. L. Martin, K. Morokuma, O. Farkas, 
 J. B. Foresman, and D. J. Fox, Gaussian, Inc., Wallingford CT, 2016.
 
 ******************************************
 Gaussian 16:  EM64L-G16RevB.01 20-Dec-2017
                 7-May-2025 
 ******************************************
 %mem=30GB
 %nprocshared=10
 Will use up to   10 processors via shared memory.
 ---------------------
 # CCSD/aug-cc-pVTZ SP
 ---------------------
 1/38=1,172=1/1;
 2/12=2,17=6,18=5,40=1/2;
 3/5=16,6=1,7=10,11=9,25=1,30=1/1,2,3;
 4//1;
 5/5=2,38=5/2;
 8/6=4,9=120000,10=1/1,4;
 9/5=7/13;
 6/7=2,8=2,9=2,10=2/1;
 99/5=1,9=1/99;
 --------------------------------------------------
 Single-point energy of X- + Y- at fixed distance R
 --------------------------------------------------
 Symbolic Z-matrix:
 Charge = -2 Multiplicity = 1
 F                     0.        0.        11. 
 F                    -1.139     0.        0. 
 H                     0.        0.        0. 
 F                     1.139     0.        0. 
 
                          Input orientation:                          
 ---------------------------------------------------------------------
 Center     Atomic      Atomic             Coordinates (Angstroms)
 Number     Number       Type             X           Y           Z
 ---------------------------------------------------------------------
      1          9           0        0.000000    0.000000   11.000000
      2          9           0       -1.139000    0.000000    0.000000
      3          1           0        0.000000    0.000000    0.000000
      4          9           0        1.139000    0.000000    0.000000
 ---------------------------------------------------------------------
                    Distance matrix (angstroms):
                    1          2          3          4
     1  F    0.000000
     2  F   11.058812   0.000000
     3  H   11.000000   1.139000   0.000000
     4  F   11.058812   2.278000   1.139000   0.000000
 Stoichiometry    F3H(2-)
 Framework group  C2V[C2(HF),SGV(F2)]
 Deg. of freedom     3
 Full point group                 C2V     NOp   4
 Largest Abelian subgroup         C2V     NOp   4
 Largest concise Abelian subgroup C2      NOp   2
                         Standard orientation:                         
 ---------------------------------------------------------------------
 Center     Atomic      Atomic             Coordinates (Angstroms)
 Number     Number       Type             X           Y           Z
 ---------------------------------------------------------------------
      1          9           0       -0.000000    0.000000    7.464286
      2          9           0        0.000000    1.139000   -3.535714
      3          1           0        0.000000    0.000000   -3.535714
      4          9           0       -0.000000   -1.139000   -3.535714
 ---------------------------------------------------------------------
 Rotational constants (GHZ):          10.2523318           0.3269259           0.3168230
 Standard basis: Aug-CC-pVTZ (5D, 7F)
 There are    74 symmetry adapted cartesian basis functions of A1  symmetry.
 There are    25 symmetry adapted cartesian basis functions of A2  symmetry.
 There are    36 symmetry adapted cartesian basis functions of B1  symmetry.
 There are    55 symmetry adapted cartesian basis functions of B2  symmetry.
 There are    60 symmetry adapted basis functions of A1  symmetry.
 There are    23 symmetry adapted basis functions of A2  symmetry.
 There are    32 symmetry adapted basis functions of B1  symmetry.
 There are    46 symmetry adapted basis functions of B2  symmetry.
   161 basis functions,   243 primitive gaussians,   190 cartesian basis functions
    15 alpha electrons       15 beta electrons
       nuclear repulsion energy        35.3638420655 Hartrees.
 NAtoms=    4 NActive=    4 NUniq=    3 SFac= 1.78D+00 NAtFMM=   60 NAOKFM=F Big=F
 Integral buffers will be    131072 words long.
 Raffenetti 1 integral format.
 Two-electron integral symmetry is turned on.
 One-electron integrals computed using PRISM.
 NBasis=   161 RedAO= T EigKep=  2.93D-04  NBF=    60    23    32    46
 NBsUse=   161 1.00D-06 EigRej= -1.00D+00 NBFU=    60    23    32    46
 ExpMin= 2.53D-02 ExpMax= 1.95D+04 ExpMxC= 6.65D+02 IAcc=3 IRadAn=         5 AccDes= 0.00D+00
 Harris functional with IExCor=  205 and IRadAn=       5 diagonalized for initial guess.
 HarFok:  IExCor=  205 AccDes= 0.00D+00 IRadAn=         5 IDoV= 1 UseB2=F ITyADJ=14
 ICtDFT=  3500011 ScaDFX=  1.000000  1.000000  1.000000  1.000000
 FoFCou: FMM=F IPFlag=           0 FMFlag=      100000 FMFlg1=           0
         NFxFlg=           0 DoJE=T BraDBF=F KetDBF=T FulRan=T
         wScrn=  0.000000 ICntrl=       500 IOpCl=  0 I1Cent=   200000004 NGrid=           0
         NMat0=    1 NMatS0=      1 NMatT0=    0 NMatD0=    1 NMtDS0=    0 NMtDT0=    0
 Petite list used in FoFCou.
 Initial guess orbital symmetries:
       Occupied  (A1) (B2) (A1) (A1) (B2) (A1) (A1) (B1) (A1) (B2)
                 (A2) (B2) (B1) (A1) (B2)
       Virtual   (A1) (B2) (A1) (A1) (B1) (A1) (A1) (B2) (B1) (A1)
                 (A2) (B2) (B2) (A1) (B1) (A1) (A1) (B2) (B1) (A1)
                 (B1) (B2) (A1) (A2) (A1) (B2) (A2) (A1) (B1) (A2)
                 (B2) (A1) (B1) (A1) (B2) (B1) (A1) (A2) (B2) (B2)
                 (A1) (A1) (B1) (B2) (A1) (A1) (B1) (A1) (B2) (A2)
                 (B2) (B2) (A1) (A1) (B1) (B2) (A2) (B2) (A2) (B1)
                 (B2) (A1) (A2) (A1) (A1) (B1) (B1) (A1) (A2) (B2)
                 (A1) (B1) (B2) (A1) (A2) (B1) (B2) (A2) (B2) (A1)
                 (B1) (A1) (B2) (A2) (B2) (A1) (B2) (B1) (A1) (B1)
                 (A1) (A1) (B1) (A1) (A1) (B2) (B1) (A1) (B1) (A1)
                 (B2) (A2) (B2) (A2) (B2) (B2) (A1) (B1) (A1) (A2)
                 (B2) (A1) (B1) (B2) (A1) (A2) (B1) (B2) (A2) (B2)
                 (B1) (A1) (B2) (B1) (B2) (A1) (A2) (A1) (A2) (B2)
                 (B2) (A2) (A1) (B1) (B1) (A1) (B1) (A1) (A1) (A2)
                 (B2) (A1) (B2) (A1) (B2) (A1)
 The electronic state of the initial guess is 1-A1.
 Keep R1 ints in memory in symmetry-blocked form, NReq=106592091.
 Requested convergence on RMS density matrix=1.00D-08 within 128 cycles.
 Requested convergence on MAX density matrix=1.00D-06.
 Requested convergence on             energy=1.00D-06.
 No special actions if energy rises.
 SCF Done:  E(RHF) =  -298.980584815     A.U. after   10 cycles
            NFock= 10  Conv=0.54D-08     -V/T= 2.0004
 ExpMin= 2.53D-02 ExpMax= 1.95D+04 ExpMxC= 6.65D+02 IAcc=3 IRadAn=         5 AccDes= 0.00D+00
 HarFok:  IExCor=  205 AccDes= 0.00D+00 IRadAn=         5 IDoV=-2 UseB2=F ITyADJ=14
 ICtDFT= 12500011 ScaDFX=  1.000000  1.000000  1.000000  1.000000
 Range of M.O.s used for correlation:     4   161
 NBasis=   161 NAE=    15 NBE=    15 NFC=     3 NFV=     0
 NROrb=    158 NOA=    12 NOB=    12 NVA=   146 NVB=   146

 **** Warning!!: The largest alpha MO coefficient is  0.21658346D+02

 Semi-Direct transformation.
 ModeAB=           4 MOrb=            12 LenV=    4025786266
 LASXX=      5679395 LTotXX=     5679395 LenRXX=    11479218
 LTotAB=     5799823 MaxLAS=    13814256 LenRXY=           0
 NonZer=    17158613 LenScr=    26512384 LnRSAI=    13814256
 LnScr1=    21475328 LExtra=           0 Total=     73281186
 MaxDsk=          -1 SrtSym=           T ITran=            4
 JobTyp=0 Pass  1:  I=   1 to  12.
 (rs|ai) integrals will be sorted in core.
 Spin components of T(2) and E(2):
     alpha-alpha T2 =       0.2526512632D-01 E2=     -0.1154942514D+00
     alpha-beta  T2 =       0.1294501043D+00 E2=     -0.6443803911D+00
     beta-beta   T2 =       0.2526512632D-01 E2=     -0.1154942514D+00
 ANorm=    0.1086269008D+01
 E2 =    -0.8753688939D+00 EUMP2 =    -0.29985595370930D+03
 Keep R2 and R3 ints in memory in symmetry-blocked form, NReq=106598451.
 CIDS: In Core Option IDoMem=           1.
 Iterations=  50 Convergence= 0.100D-06
 Produce multiple copies of IABC intergrals
 Iteration Nr.   1
 **********************
 DD1Dir will call FoFMem   1 times, MxPair=       156
 NAB=    78 NAA=     0 NBB=     0.
 MP4(R+Q)=  0.10075268D-01
 E3=        0.23411013D-01        EUMP3=      -0.29983254270D+03
 E4(DQ)=   -0.57955693D-02        UMP4(DQ)=   -0.29983833827D+03
 E4(SDQ)=  -0.17478536D-01        UMP4(SDQ)=  -0.29985002123D+03
 DE(Corr)= -0.84100509     E(Corr)=     -299.82158990    
 NORM(A)=   0.10803566D+01
 Iteration Nr.   2
 **********************
 DD1Dir will call FoFMem   1 times, MxPair=       156
 NAB=    78 NAA=     0 NBB=     0.
 DE(Corr)= -0.86412064     E(CORR)=     -299.84470545     Delta=-2.31D-02
 NORM(A)=   0.10859335D+01
 Iteration Nr.   3
 **********************
 DD1Dir will call FoFMem   1 times, MxPair=       156
 NAB=    78 NAA=     0 NBB=     0.
 DE(Corr)= -0.86122782     E(CORR)=     -299.84181263     Delta= 2.89D-03
 NORM(A)=   0.10881135D+01
 Iteration Nr.   4
 **********************
 DD1Dir will call FoFMem   1 times, MxPair=       156
 NAB=    78 NAA=     0 NBB=     0.
 DE(Corr)= -0.86312235     E(CORR)=     -299.84370716     Delta=-1.89D-03
 NORM(A)=   0.10889560D+01
 Iteration Nr.   5
 **********************
 DD1Dir will call FoFMem   1 times, MxPair=       156
 NAB=    78 NAA=     0 NBB=     0.
 DE(Corr)= -0.86331500     E(CORR)=     -299.84389982     Delta=-1.93D-04
 NORM(A)=   0.10891408D+01
 Iteration Nr.   6
 **********************
 DD1Dir will call FoFMem   1 times, MxPair=       156
 NAB=    78 NAA=     0 NBB=     0.
 DE(Corr)= -0.86332301     E(CORR)=     -299.84390782     Delta=-8.01D-06
 NORM(A)=   0.10891948D+01
 Iteration Nr.   7
 **********************
 DD1Dir will call FoFMem   1 times, MxPair=       156
 NAB=    78 NAA=     0 NBB=     0.
 DE(Corr)= -0.86332093     E(CORR)=     -299.84390574     Delta= 2.08D-06
 NORM(A)=   0.10891993D+01
 Iteration Nr.   8
 **********************
 DD1Dir will call FoFMem   1 times, MxPair=       156
 NAB=    78 NAA=     0 NBB=     0.
 DE(Corr)= -0.86332236     E(CORR)=     -299.84390718     Delta=-1.44D-06
 NORM(A)=   0.10892017D+01
 Iteration Nr.   9
 **********************
 DD1Dir will call FoFMem   1 times, MxPair=       156
 NAB=    78 NAA=     0 NBB=     0.
 DE(Corr)= -0.86332070     E(CORR)=     -299.84390551     Delta= 1.67D-06
 NORM(A)=   0.10892025D+01
 Iteration Nr.  10
 **********************
 DD1Dir will call FoFMem   1 times, MxPair=       156
 NAB=    78 NAA=     0 NBB=     0.
 DE(Corr)= -0.86332141     E(CORR)=     -299.84390623     Delta=-7.15D-07
 NORM(A)=   0.10892025D+01
 Iteration Nr.  11
 **********************
 DD1Dir will call FoFMem   1 times, MxPair=       156
 NAB=    78 NAA=     0 NBB=     0.
 DE(Corr)= -0.86332117     E(CORR)=     -299.84390598     Delta= 2.46D-07
 NORM(A)=   0.10892025D+01
 Iteration Nr.  12
 **********************
 DD1Dir will call FoFMem   1 times, MxPair=       156
 NAB=    78 NAA=     0 NBB=     0.
 DE(Corr)= -0.86332123     E(CORR)=     -299.84390605     Delta=-6.38D-08
 NORM(A)=   0.10892025D+01
 Wavefunction amplitudes converged. E(Corr)=     -299.84390605    
 Largest amplitude= 3.68D-02
 Discarding MO integrals.

 **********************************************************************

            Population analysis using the SCF Density.

 **********************************************************************

 Orbital symmetries:
       Occupied  (B2) (A1) (A1) (A1) (B2) (A1) (A1) (B1) (A1) (A2)
                 (B2) (B2) (A1) (B2) (B1)
       Virtual   (A1) (B2) (B1) (A1) (A1) (A2) (B2) (B1) (B2) (A1)
                 (A1) (A1) (B2) (B1) (A1) (A1) (B2) (A1) (B1) (A1)
                 (A2) (B2) (B1) (A1) (A1) (A2) (B1) (B2) (A1) (A1)
                 (A2) (B2) (B1) (A1) (A2) (B2) (B2) (B1) (A1) (A1)
                 (B1) (B2) (A1) (B2) (A1) (B1) (A1) (A1) (A2) (B2)
                 (B2) (B2) (A1) (B1) (A1) (A2) (B2) (A2) (B2) (B1)
                 (A1) (A2) (B2) (B1) (A1) (A1) (A2) (B1) (B2) (A1)
                 (A2) (B2) (B1) (B2) (A1) (A2) (B1) (B2) (A1) (A1)
                 (B1) (A1) (B2) (A2) (B2) (A1) (B2) (B1) (A1) (B1)
                 (A1) (A1) (B1) (A1) (A1) (B2) (B1) (A1) (B1) (B2)
                 (A1) (A2) (B2) (A2) (B2) (B2) (A1) (B1) (A1) (A2)
                 (B2) (A2) (B2) (B1) (B2) (A1) (A2) (B1) (B2) (A1)
                 (B1) (A1) (B2) (A2) (B2) (A2) (B2) (B1) (A1) (B1)
                 (A1) (A1) (A2) (B1) (B2) (A1) (B1) (A1) (A1) (A2)
                 (B2) (A1) (B2) (A1) (B2) (A1)
 The electronic state is 1-A1.
 Alpha  occ. eigenvalues --  -25.90963 -25.90961 -25.78603  -1.21199  -1.16471
 Alpha  occ. eigenvalues --   -1.02836  -0.42114  -0.28332  -0.28327  -0.25681
 Alpha  occ. eigenvalues --   -0.25678  -0.23593  -0.13329  -0.13328  -0.13328
 Alpha virt. eigenvalues --    0.24331   0.35181   0.40281   0.40332   0.40706
 Alpha virt. eigenvalues --    0.48119   0.48244   0.48978   0.48980   0.49067
 Alpha virt. eigenvalues --    0.52533   0.53369   0.59383   0.66874   0.66962
 Alpha virt. eigenvalues --    0.76776   0.95210   0.96705   1.04736   1.04737
 Alpha virt. eigenvalues --    1.24754   1.24754   1.25654   1.25698   1.27596
 Alpha virt. eigenvalues --    1.27596   1.27624   1.27625   1.27635   1.32160
 Alpha virt. eigenvalues --    1.36127   1.36164   1.47410   1.47448   1.50427
 Alpha virt. eigenvalues --    1.50463   1.50711   1.51950   1.51950   1.52564
 Alpha virt. eigenvalues --    1.57355   1.57356   1.57391   1.62377   1.74056
 Alpha virt. eigenvalues --    2.05038   2.05074   2.09881   2.30177   2.30220
 Alpha virt. eigenvalues --    2.40186   2.89532   2.98482   3.15198   3.15199
 Alpha virt. eigenvalues --    3.17199   3.17213   3.20600   3.20601   3.26190
 Alpha virt. eigenvalues --    3.26190   3.27541   3.27541   3.31155   3.31171
 Alpha virt. eigenvalues --    3.33092   3.33092   3.33104   3.33104   3.33108
 Alpha virt. eigenvalues --    3.35671   3.35671   3.37928   3.37928   3.37939
 Alpha virt. eigenvalues --    3.37939   3.37946   3.37946   3.37948   3.44815
 Alpha virt. eigenvalues --    3.63984   3.63984   3.88450   3.88628   3.88646
 Alpha virt. eigenvalues --    3.94844   4.06271   4.24539   4.24556   4.54075
 Alpha virt. eigenvalues --    4.54075   4.77539   4.84405   4.84415   5.40528
 Alpha virt. eigenvalues --    5.67340   5.70346   5.70357   5.71988   5.71988
 Alpha virt. eigenvalues --    5.71998   5.80873   5.80887   6.40320   6.40327
 Alpha virt. eigenvalues --    7.51289   8.42430   9.18909   9.18909   9.19721
 Alpha virt. eigenvalues --    9.19721   9.22092   9.22092   9.31559   9.31559
 Alpha virt. eigenvalues --    9.31565   9.31565   9.31569   9.31569   9.31570
 Alpha virt. eigenvalues --    9.42613   9.42613   9.58110   9.59829   9.59836
 Alpha virt. eigenvalues --    9.69178   9.69178   9.70805   9.70812   9.74389
 Alpha virt. eigenvalues --    9.74389   9.79279   9.79279   9.79284   9.79284
 Alpha virt. eigenvalues --    9.79286   9.90364   9.90370  10.03324  10.09365
 Alpha virt. eigenvalues --   10.09370  10.43784  10.57291  11.01313  13.54964
 Alpha virt. eigenvalues --   15.43740
          Condensed to atoms (all electrons):
               1          2          3          4
     1  F   10.000000  -0.000000   0.000000  -0.000000
     2  F   -0.000000   9.764693   0.092713  -0.102248
     3  H    0.000000   0.092713   0.304255   0.092713
     4  F   -0.000000  -0.102248   0.092713   9.764693
 Mulliken charges:
               1
     1  F   -1.000000
     2  F   -0.755159
     3  H    0.510318
     4  F   -0.755159
 Sum of Mulliken charges =  -2.00000
 Mulliken charges with hydrogens summed into heavy atoms:
               1
     1  F   -1.000000
     2  F   -0.244841
     4  F   -0.755159
 Electronic spatial extent (au):  <R**2>=           3017.4702
 Charge=             -2.0000 electrons
 Dipole moment (field-independent basis, Debye):
    X=              0.0000    Y=             -0.0000    Z=            -18.8496  Tot=             18.8496
 Quadrupole moment (field-independent basis, Debye-Ang):
   XX=            -19.7397   YY=            -28.8762   ZZ=           -348.4249
   XY=             -0.0000   XZ=             -0.0000   YZ=             -0.0000
 Traceless Quadrupole moment (field-independent basis, Debye-Ang):
   XX=            112.6072   YY=            103.4707   ZZ=           -216.0780
   XY=             -0.0000   XZ=             -0.0000   YZ=             -0.0000
 Octapole moment (field-independent basis, Debye-Ang**2):
  XXX=              0.0000  YYY=             -0.0000  ZZZ=          -1816.8753  XYY=              0.0000
  XXY=              0.0000  XXZ=             -9.0623  XZZ=              0.0000  YZZ=             -0.0000
  YYZ=             23.3203  XYZ=              0.0000
 Hexadecapole moment (field-independent basis, Debye-Ang**3):
 XXXX=            -18.2060 YYYY=           -122.6649 ZZZZ=         -19098.1272 XXXY=             -0.0000
 XXXZ=             -0.0000 YYYX=             -0.0000 YYYZ=             -0.0000 ZZZX=             -0.0000
 ZZZY=              0.0000 XXYY=            -22.1024 XXZZ=           -563.1897 YYZZ=           -693.9804
 XXYZ=              0.0000 YYXZ=             -0.0000 ZZXY=             -0.0000
 N-N= 3.536384206551D+01 E-N=-8.012663449094D+02  KE= 2.988723480130D+02
 Symmetry A1   KE= 1.805260558723D+02
 Symmetry A2   KE= 6.156196940154D+00
 Symmetry B1   KE= 1.146065012272D+01
 Symmetry B2   KE= 1.007294450778D+02
 1\1\GINC-HELIOS\SP\RCCSD-FC\Aug-CC-pVTZ\F3H1(2-)\POHL\07-May-2025\0\\#
  CCSD/aug-cc-pVTZ SP\\Single-point energy of X- + Y- at fixed distance
  R\\-2,1\F,0,0.,0.,11.\F,0,-1.139,0.,0.\H,0,0.,0.,0.\F,0,1.139,0.,0.\\
 Version=EM64L-G16RevB.01\State=1-A1\HF=-298.9805848\MP2=-299.8559537\M
 P3=-299.8325427\MP4D=-299.8484135\MP4DQ=-299.8383383\MP4SDQ=-299.85002
 12\CCSD=-299.843906\RMSD=5.374e-09\PG=C02V [C2(H1F1),SGV(F2)]\\@


 "PERFECTION IS NOT AN ACCIDENT"
         --  EAGLE ELECTRIC MANUFACTURING CO.,INC. NY
 Job cpu time:       0 days  0 hours  4 minutes 34.7 seconds.
 Elapsed time:       0 days  0 hours  0 minutes 27.6 seconds.
 File lengths (MBytes):  RWF=    597 Int=      0 D2E=      0 Chk=      3 Scr=      1
 Normal termination of Gaussian 16 at Wed May  7 12:31:32 2025.
