 Entering Gaussian System, Link 0=g16
 Input=1T.com
 Output=1T.log
 Initial command:
 /opt/g16/l1.exe "/home/pohl/scratches/g16/Gau-2185484.inp" -scrdir="/home/pohl/scratches/g16/"
 Entering Link 1 = /opt/g16/l1.exe PID=   2185486.
  
 Copyright (c) 1988-2017, Gaussian, Inc.  All Rights Reserved.
  
 This is part of the Gaussian(R) 16 program.  It is based on
 the Gaussian(R) 09 system (copyright 2009, Gaussian, Inc.),
 the Gaussian(R) 03 system (copyright 2003, Gaussian, Inc.),
 the Gaussian(R) 98 system (copyright 1998, Gaussian, Inc.),
 the Gaussian(R) 94 system (copyright 1995, Gaussian, Inc.),
 the Gaussian 92(TM) system (copyright 1992, Gaussian, Inc.),
 the Gaussian 90(TM) system (copyright 1990, Gaussian, Inc.),
 the Gaussian 88(TM) system (copyright 1988, Gaussian, Inc.),
 the Gaussian 86(TM) system (copyright 1986, Carnegie Mellon
 University), and the Gaussian 82(TM) system (copyright 1983,
 Carnegie Mellon University). Gaussian is a federally registered
 trademark of Gaussian, Inc.
  
 This software contains proprietary and confidential information,
 including trade secrets, belonging to Gaussian, Inc.
  
 This software is provided under written license and may be
 used, copied, transmitted, or stored only in accord with that
 written license.
  
 The following legend is applicable only to US Government
 contracts under FAR:
  
                    RESTRICTED RIGHTS LEGEND
  
 Use, reproduction and disclosure by the US Government is
 subject to restrictions as set forth in subparagraphs (a)
 and (c) of the Commercial Computer Software - Restricted
 Rights clause in FAR 52.227-19.
  
 Gaussian, Inc.
 340 Quinnipiac St., Bldg. 40, Wallingford CT 06492
  
  
 ---------------------------------------------------------------
 Warning -- This program may not be used in any manner that
 competes with the business of Gaussian, Inc. or will provide
 assistance to any competitor of Gaussian, Inc.  The licensee
 of this program is prohibited from giving any competitor of
 Gaussian, Inc. access to this program.  By using this program,
 the user acknowledges that Gaussian, Inc. is engaged in the
 business of creating and licensing software in the field of
 computational chemistry and represents and warrants to the
 licensee that it is not a competitor of Gaussian, Inc. and that
 it will not use this program in any manner prohibited above.
 ---------------------------------------------------------------
  

 Cite this work as:
 Gaussian 16, Revision B.01,
 M. J. Frisch, G. W. Trucks, H. B. Schlegel, G. E. Scuseria, 
 M. A. Robb, J. R. Cheeseman, G. Scalmani, V. Barone, 
 G. A. Petersson, H. Nakatsuji, X. Li, M. Caricato, A. V. Marenich, 
 J. Bloino, B. G. Janesko, R. Gomperts, B. Mennucci, H. P. Hratchian, 
 J. V. Ortiz, A. F. Izmaylov, J. L. Sonnenberg, D. Williams-Young, 
 F. Ding, F. Lipparini, F. Egidi, J. Goings, B. Peng, A. Petrone, 
 T. Henderson, D. Ranasinghe, V. G. Zakrzewski, J. Gao, N. Rega, 
 G. Zheng, W. Liang, M. Hada, M. Ehara, K. Toyota, R. Fukuda, 
 J. Hasegawa, M. Ishida, T. Nakajima, Y. Honda, O. Kitao, H. Nakai, 
 T. Vreven, K. Throssell, J. A. Montgomery, Jr., J. E. Peralta, 
 F. Ogliaro, M. J. Bearpark, J. J. Heyd, E. N. Brothers, K. N. Kudin, 
 V. N. Staroverov, T. A. Keith, R. Kobayashi, J. Normand, 
 K. Raghavachari, A. P. Rendell, J. C. Burant, S. S. Iyengar, 
 J. Tomasi, M. Cossi, J. M. Millam, M. Klene, C. Adamo, R. Cammi, 
 J. W. Ochterski, R. L. Martin, K. Morokuma, O. Farkas, 
 J. B. Foresman, and D. J. Fox, Gaussian, Inc., Wallingford CT, 2016.
 
 ******************************************
 Gaussian 16:  EM64L-G16RevB.01 20-Dec-2017
                 3-Jun-2025 
 ******************************************
 %mem=30GB
 %nprocshared=10
 Will use up to   10 processors via shared memory.
 -----------------------------
 # CCSD(T)=Full/aug-cc-pVTZ SP
 -----------------------------
 1/38=1,172=1/1;
 2/12=2,17=6,18=5,40=1/2;
 3/5=16,6=1,7=10,11=9,25=1,30=1/1,2,3;
 4//1;
 5/5=2,38=5/2;
 8/6=4,9=120000,10=90/1,4;
 9/5=7,14=2/13;
 6/7=2,8=2,9=2,10=2/1;
 99/5=1,9=1/99;
 --------------------------------------------------
 Single-point energy of X- + Y- at fixed distance R
 --------------------------------------------------
 Symbolic Z-matrix:
 Charge = -2 Multiplicity = 1
 F                     0.        0.        2. 
 F                    -1.139     0.        0. 
 H                     0.        0.        0. 
 F                     1.139     0.        0. 
 
                          Input orientation:                          
 ---------------------------------------------------------------------
 Center     Atomic      Atomic             Coordinates (Angstroms)
 Number     Number       Type             X           Y           Z
 ---------------------------------------------------------------------
      1          9           0        0.000000    0.000000    2.000000
      2          9           0       -1.139000    0.000000    0.000000
      3          1           0        0.000000    0.000000    0.000000
      4          9           0        1.139000    0.000000    0.000000
 ---------------------------------------------------------------------
                    Distance matrix (angstroms):
                    1          2          3          4
     1  F    0.000000
     2  F    2.301591   0.000000
     3  H    2.000000   1.139000   0.000000
     4  F    2.301591   2.278000   1.139000   0.000000
 Stoichiometry    F3H(2-)
 Framework group  C2V[C2(HF),SGV(F2)]
 Deg. of freedom     3
 Full point group                 C2V     NOp   4
 Largest Abelian subgroup         C2V     NOp   4
 Largest concise Abelian subgroup C2      NOp   2
                         Standard orientation:                         
 ---------------------------------------------------------------------
 Center     Atomic      Atomic             Coordinates (Angstroms)
 Number     Number       Type             X           Y           Z
 ---------------------------------------------------------------------
      1          9           0       -0.000000    0.000000    1.357143
      2          9           0        0.000000    1.139000   -0.642857
      3          1           0        0.000000    0.000000   -0.642857
      4          9           0       -0.000000   -1.139000   -0.642857
 ---------------------------------------------------------------------
 Rotational constants (GHZ):          10.2523318           9.8895070           5.0338258
 Standard basis: Aug-CC-pVTZ (5D, 7F)
 There are    74 symmetry adapted cartesian basis functions of A1  symmetry.
 There are    25 symmetry adapted cartesian basis functions of A2  symmetry.
 There are    36 symmetry adapted cartesian basis functions of B1  symmetry.
 There are    55 symmetry adapted cartesian basis functions of B2  symmetry.
 There are    60 symmetry adapted basis functions of A1  symmetry.
 There are    23 symmetry adapted basis functions of A2  symmetry.
 There are    32 symmetry adapted basis functions of B1  symmetry.
 There are    46 symmetry adapted basis functions of B2  symmetry.
   161 basis functions,   243 primitive gaussians,   190 cartesian basis functions
    15 alpha electrons       15 beta electrons
       nuclear repulsion energy        66.8070022788 Hartrees.
 NAtoms=    4 NActive=    4 NUniq=    3 SFac= 1.78D+00 NAtFMM=   60 NAOKFM=F Big=F
 Integral buffers will be    131072 words long.
 Raffenetti 1 integral format.
 Two-electron integral symmetry is turned on.
 One-electron integrals computed using PRISM.
 NBasis=   161 RedAO= T EigKep=  2.79D-04  NBF=    60    23    32    46
 NBsUse=   161 1.00D-06 EigRej= -1.00D+00 NBFU=    60    23    32    46
 ExpMin= 2.53D-02 ExpMax= 1.95D+04 ExpMxC= 6.65D+02 IAcc=3 IRadAn=         5 AccDes= 0.00D+00
 Harris functional with IExCor=  205 and IRadAn=       5 diagonalized for initial guess.
 HarFok:  IExCor=  205 AccDes= 0.00D+00 IRadAn=         5 IDoV= 1 UseB2=F ITyADJ=14
 ICtDFT=  3500011 ScaDFX=  1.000000  1.000000  1.000000  1.000000
 FoFCou: FMM=F IPFlag=           0 FMFlag=      100000 FMFlg1=           0
         NFxFlg=           0 DoJE=T BraDBF=F KetDBF=T FulRan=T
         wScrn=  0.000000 ICntrl=       500 IOpCl=  0 I1Cent=   200000004 NGrid=           0
         NMat0=    1 NMatS0=      1 NMatT0=    0 NMatD0=    1 NMtDS0=    0 NMtDT0=    0
 Petite list used in FoFCou.
 Initial guess orbital symmetries:
       Occupied  (A1) (B2) (A1) (A1) (B2) (A1) (A1) (A1) (B1) (B2)
                 (B2) (A2) (B1) (B2) (A1)
       Virtual   (A1) (B2) (A1) (B1) (A1) (A1) (B2) (A2) (B1) (A1)
                 (B2) (A1) (B1) (B2) (A1) (A1) (A1) (B1) (B2) (A2)
                 (A1) (B2) (A1) (B1) (A1) (B2) (A2) (A1) (A2) (B1)
                 (B2) (A1) (B1) (B2) (A1) (A2) (B1) (B2) (A1) (B1)
                 (A1) (B2) (A1) (B2) (A1) (B1) (A1) (B2) (B2) (A2)
                 (A1) (B2) (A1) (B2) (A2) (B2) (B1) (A1) (A2) (B1)
                 (A2) (A1) (B1) (A2) (A1) (B2) (A1) (B1) (B2) (A2)
                 (B1) (B2) (A1) (A1) (B2) (A1) (B1) (A2) (A1) (B1)
                 (B2) (A2) (B2) (A1) (A1) (B2) (B2) (B1) (A1) (B1)
                 (A1) (A1) (B1) (A1) (A1) (B1) (B2) (B1) (A1) (A2)
                 (B2) (B2) (A1) (A2) (B2) (B2) (A1) (A2) (B2) (B1)
                 (A1) (B2) (A2) (B1) (B2) (A1) (B1) (A2) (A1) (B1)
                 (B2) (A1) (A2) (A2) (B2) (A1) (B1) (B1) (A2) (B2)
                 (A1) (A1) (B1) (B2) (A1) (B1) (A1) (B2) (A1) (A2)
                 (B2) (B2) (A1) (A1) (B2) (A1)
 The electronic state of the initial guess is 1-A1.
 Keep R1 ints in memory in symmetry-blocked form, NReq=106592091.
 Requested convergence on RMS density matrix=1.00D-08 within 128 cycles.
 Requested convergence on MAX density matrix=1.00D-06.
 Requested convergence on             energy=1.00D-06.
 No special actions if energy rises.
 SCF Done:  E(RHF) =  -298.811105453     A.U. after   12 cycles
            NFock= 12  Conv=0.39D-08     -V/T= 1.9994
 Range of M.O.s used for correlation:     1   161
 NBasis=   161 NAE=    15 NBE=    15 NFC=     0 NFV=     0
 NROrb=    161 NOA=    15 NOB=    15 NVA=   146 NVB=   146

 **** Warning!!: The largest alpha MO coefficient is  0.18729874D+02

 Semi-Direct transformation.
 ModeAB=           4 MOrb=            15 LenV=    4025743867
 LASXX=      7455905 LTotXX=     7455905 LenRXX=    15070224
 LTotAB=     7614319 MaxLAS=    26977965 LenRXY=           0
 NonZer=    22526129 LenScr=    34557952 LnRSAI=    26977965
 LnScr1=    41223168 LExtra=           0 Total=    117829309
 MaxDsk=          -1 SrtSym=           T ITran=            4
 JobTyp=0 Pass  1:  I=   1 to  15.
 (rs|ai) integrals will be sorted in core.
 Spin components of T(2) and E(2):
     alpha-alpha T2 =       0.2623797999D-01 E2=     -0.1226242491D+00
     alpha-beta  T2 =       0.1326229803D+00 E2=     -0.6807483993D+00
     beta-beta   T2 =       0.2623797999D-01 E2=     -0.1226242491D+00
 ANorm=    0.1088622497D+01
 E2 =    -0.9259968974D+00 EUMP2 =    -0.29973710235068D+03
 Keep R2 and R3 ints in memory in symmetry-blocked form, NReq=106599327.
 CIDS: In Core Option IDoMem=           1.
 Iterations=  50 Convergence= 0.100D-06
 Produce multiple copies of IABC intergrals
 Iteration Nr.   1
 **********************
 DD1Dir will call FoFMem   1 times, MxPair=       240
 NAB=   120 NAA=     0 NBB=     0.
 MP4(R+Q)=  0.11410231D-01
 E3=        0.25915765D-01        EUMP3=      -0.29971118659D+03
 E4(DQ)=   -0.53467493D-02        UMP4(DQ)=   -0.29971653334D+03
 E4(SDQ)=  -0.19183307D-01        UMP4(SDQ)=  -0.29973036989D+03
 DE(Corr)= -0.88750389     E(Corr)=     -299.69860934    
 NORM(A)=   0.10831279D+01
 Iteration Nr.   2
 **********************
 DD1Dir will call FoFMem   1 times, MxPair=       240
 NAB=   120 NAA=     0 NBB=     0.
 DE(Corr)= -0.91366268     E(CORR)=     -299.72476813     Delta=-2.62D-02
 NORM(A)=   0.10888533D+01
 Iteration Nr.   3
 **********************
 DD1Dir will call FoFMem   1 times, MxPair=       240
 NAB=   120 NAA=     0 NBB=     0.
 DE(Corr)= -0.90932623     E(CORR)=     -299.72043168     Delta= 4.34D-03
 NORM(A)=   0.10921095D+01
 Iteration Nr.   4
 **********************
 DD1Dir will call FoFMem   1 times, MxPair=       240
 NAB=   120 NAA=     0 NBB=     0.
 DE(Corr)= -0.91177490     E(CORR)=     -299.72288035     Delta=-2.45D-03
 NORM(A)=   0.10935284D+01
 Iteration Nr.   5
 **********************
 DD1Dir will call FoFMem   1 times, MxPair=       240
 NAB=   120 NAA=     0 NBB=     0.
 DE(Corr)= -0.91206135     E(CORR)=     -299.72316680     Delta=-2.86D-04
 NORM(A)=   0.10940511D+01
 Iteration Nr.   6
 **********************
 DD1Dir will call FoFMem   1 times, MxPair=       240
 NAB=   120 NAA=     0 NBB=     0.
 DE(Corr)= -0.91208491     E(CORR)=     -299.72319037     Delta=-2.36D-05
 NORM(A)=   0.10942776D+01
 Iteration Nr.   7
 **********************
 DD1Dir will call FoFMem   1 times, MxPair=       240
 NAB=   120 NAA=     0 NBB=     0.
 DE(Corr)= -0.91208084     E(CORR)=     -299.72318630     Delta= 4.07D-06
 NORM(A)=   0.10943330D+01
 Iteration Nr.   8
 **********************
 DD1Dir will call FoFMem   1 times, MxPair=       240
 NAB=   120 NAA=     0 NBB=     0.
 DE(Corr)= -0.91210683     E(CORR)=     -299.72321228     Delta=-2.60D-05
 NORM(A)=   0.10943508D+01
 Iteration Nr.   9
 **********************
 DD1Dir will call FoFMem   1 times, MxPair=       240
 NAB=   120 NAA=     0 NBB=     0.
 DE(Corr)= -0.91207526     E(CORR)=     -299.72318072     Delta= 3.16D-05
 NORM(A)=   0.10943659D+01
 Iteration Nr.  10
 **********************
 DD1Dir will call FoFMem   1 times, MxPair=       240
 NAB=   120 NAA=     0 NBB=     0.
 DE(Corr)= -0.91209191     E(CORR)=     -299.72319737     Delta=-1.66D-05
 NORM(A)=   0.10943579D+01
 Iteration Nr.  11
 **********************
 DD1Dir will call FoFMem   1 times, MxPair=       240
 NAB=   120 NAA=     0 NBB=     0.
 DE(Corr)= -0.91208481     E(CORR)=     -299.72319026     Delta= 7.11D-06
 NORM(A)=   0.10943560D+01
 Iteration Nr.  12
 **********************
 DD1Dir will call FoFMem   1 times, MxPair=       240
 NAB=   120 NAA=     0 NBB=     0.
 DE(Corr)= -0.91208514     E(CORR)=     -299.72319059     Delta=-3.35D-07
 NORM(A)=   0.10943525D+01
 Iteration Nr.  13
 **********************
 DD1Dir will call FoFMem   1 times, MxPair=       240
 NAB=   120 NAA=     0 NBB=     0.
 DE(Corr)= -0.91208495     E(CORR)=     -299.72319040     Delta= 1.93D-07
 NORM(A)=   0.10943506D+01
 Iteration Nr.  14
 **********************
 DD1Dir will call FoFMem   1 times, MxPair=       240
 NAB=   120 NAA=     0 NBB=     0.
 DE(Corr)= -0.91208472     E(CORR)=     -299.72319017     Delta= 2.32D-07
 NORM(A)=   0.10943495D+01
 Iteration Nr.  15
 **********************
 DD1Dir will call FoFMem   1 times, MxPair=       240
 NAB=   120 NAA=     0 NBB=     0.
 DE(Corr)= -0.91208444     E(CORR)=     -299.72318990     Delta= 2.71D-07
 NORM(A)=   0.10943488D+01
 Iteration Nr.  16
 **********************
 DD1Dir will call FoFMem   1 times, MxPair=       240
 NAB=   120 NAA=     0 NBB=     0.
 DE(Corr)= -0.91208464     E(CORR)=     -299.72319009     Delta=-1.95D-07
 NORM(A)=   0.10943483D+01
 Iteration Nr.  17
 **********************
 DD1Dir will call FoFMem   1 times, MxPair=       240
 NAB=   120 NAA=     0 NBB=     0.
 DE(Corr)= -0.91208442     E(CORR)=     -299.72318987     Delta= 2.24D-07
 NORM(A)=   0.10943483D+01
 Iteration Nr.  18
 **********************
 DD1Dir will call FoFMem   1 times, MxPair=       240
 NAB=   120 NAA=     0 NBB=     0.
 DE(Corr)= -0.91208448     E(CORR)=     -299.72318994     Delta=-6.70D-08
 NORM(A)=   0.10943483D+01
 Wavefunction amplitudes converged. E(Corr)=     -299.72318994    
 Largest amplitude= 3.66D-02
 Time for triples=      638.22 seconds.
 T4(CCSD)= -0.34826126D-01
 T5(CCSD)=  0.37728570D-02
 CCSD(T)= -0.29975424320D+03
 Discarding MO integrals.

 **********************************************************************

            Population analysis using the SCF Density.

 **********************************************************************

 Orbital symmetries:
       Occupied  (B2) (A1) (A1) (A1) (B2) (A1) (A1) (A1) (B1) (B2)
                 (A2) (B2) (B1) (B2) (A1)
       Virtual   (A1) (B2) (A1) (A1) (B1) (A2) (A1) (B2) (B1) (B2)
                 (A1) (B2) (B1) (A1) (A1) (A1) (B2) (A1) (B1) (A2)
                 (A1) (B1) (A1) (B2) (A1) (A2) (B2) (A1) (A2) (B2)
                 (B1) (A1) (B1) (A1) (B2) (B1) (A1) (B2) (A2) (A1)
                 (B2) (B1) (A1) (B2) (B1) (A1) (A1) (A2) (B2) (B2)
                 (A1) (B2) (A1) (B2) (A2) (B1) (B2) (A1) (A2) (A2)
                 (B1) (A1) (B1) (B2) (A2) (A1) (B2) (A2) (A1) (B1)
                 (B1) (A1) (B2) (A1) (A1) (B2) (B1) (A2) (A1) (B1)
                 (A2) (B2) (B2) (A1) (A1) (B2) (B2) (B1) (A1) (B1)
                 (A1) (A1) (B1) (A1) (A1) (B2) (B1) (B2) (B1) (A2)
                 (A1) (B2) (A1) (A2) (B2) (B2) (A1) (A2) (B2) (B1)
                 (A1) (B2) (A2) (B1) (B2) (A1) (B1) (A2) (B1) (A1)
                 (B2) (A1) (A2) (B2) (B1) (A1) (A2) (B1) (B2) (A1)
                 (A2) (A1) (B2) (B1) (A1) (B1) (A1) (B2) (A1) (A2)
                 (B2) (A1) (B2) (A1) (B2) (A1)
 The electronic state is 1-A1.
 Alpha  occ. eigenvalues --  -25.75323 -25.75320 -25.64069  -1.05652  -1.00938
 Alpha  occ. eigenvalues --   -0.89023  -0.26575  -0.13365  -0.12922  -0.10893
 Alpha  occ. eigenvalues --   -0.10189  -0.08287   0.00810   0.01435   0.01916
 Alpha virt. eigenvalues --    0.32315   0.42718   0.49076   0.49500   0.51341
 Alpha virt. eigenvalues --    0.58922   0.59264   0.59448   0.61911   0.63824
 Alpha virt. eigenvalues --    0.65043   0.75036   0.80721   0.81982   0.84817
 Alpha virt. eigenvalues --    0.94568   1.09031   1.12510   1.24119   1.32326
 Alpha virt. eigenvalues --    1.34020   1.38971   1.40992   1.41528   1.43432
 Alpha virt. eigenvalues --    1.49168   1.49219   1.51035   1.53659   1.57579
 Alpha virt. eigenvalues --    1.57936   1.58345   1.63922   1.65194   1.65802
 Alpha virt. eigenvalues --    1.67997   1.68003   1.69266   1.69290   1.75685
 Alpha virt. eigenvalues --    1.79341   1.81452   1.93672   2.07974   2.20104
 Alpha virt. eigenvalues --    2.20588   2.26066   2.44291   2.50257   2.56461
 Alpha virt. eigenvalues --    2.68767   3.03984   3.11852   3.26817   3.29649
 Alpha virt. eigenvalues --    3.31116   3.32284   3.32341   3.33412   3.37184
 Alpha virt. eigenvalues --    3.37655   3.38144   3.42767   3.45706   3.46504
 Alpha virt. eigenvalues --    3.47284   3.48100   3.51109   3.51884   3.52815
 Alpha virt. eigenvalues --    3.54704   3.59298   3.59465   3.71960   3.77312
 Alpha virt. eigenvalues --    3.79349   3.80343   3.86020   3.87765   3.91203
 Alpha virt. eigenvalues --    4.03398   4.03592   4.06787   4.09663   4.18394
 Alpha virt. eigenvalues --    4.18544   4.40593   4.41178   4.56135   4.72152
 Alpha virt. eigenvalues --    4.86393   4.99820   5.01598   5.27244   5.57420
 Alpha virt. eigenvalues --    5.83091   5.85846   5.89508   5.91676   5.96239
 Alpha virt. eigenvalues --    5.98632   6.28401   6.42400   6.56027   6.58888
 Alpha virt. eigenvalues --    7.67460   8.61182   9.29926   9.31067   9.32093
 Alpha virt. eigenvalues --    9.34640   9.35763   9.36802   9.46591   9.49181
 Alpha virt. eigenvalues --    9.52516   9.57359   9.59090   9.62795   9.66909
 Alpha virt. eigenvalues --    9.67301   9.75657   9.75708   9.79277   9.86237
 Alpha virt. eigenvalues --    9.87397   9.87494   9.91321   9.92041   9.95362
 Alpha virt. eigenvalues --    9.98327  10.00309  10.03367  10.03826  10.06313
 Alpha virt. eigenvalues --   10.06477  10.16645  10.18706  10.22164  10.25031
 Alpha virt. eigenvalues --   10.30754  10.68559  10.73826  12.38785  13.91032
 Alpha virt. eigenvalues --   15.67893
          Condensed to atoms (all electrons):
               1          2          3          4
     1  F   10.365835  -0.157802  -0.023653  -0.157802
     2  F   -0.157802   9.950673   0.111086  -0.145838
     3  H   -0.023653   0.111086   0.258667   0.111086
     4  F   -0.157802  -0.145838   0.111086   9.950673
 Mulliken charges:
               1
     1  F   -1.026578
     2  F   -0.758119
     3  H    0.542815
     4  F   -0.758119
 Sum of Mulliken charges =  -2.00000
 Mulliken charges with hydrogens summed into heavy atoms:
               1
     1  F   -1.026578
     2  F   -0.215304
     4  F   -0.758119
 Electronic spatial extent (au):  <R**2>=            233.7557
 Charge=             -2.0000 electrons
 Dipole moment (field-independent basis, Debye):
    X=              0.0000    Y=              0.0000    Z=             -3.1231  Tot=              3.1231
 Quadrupole moment (field-independent basis, Debye-Ang):
   XX=            -20.1831   YY=            -30.3738   ZZ=            -34.3537
   XY=             -0.0000   XZ=             -0.0000   YZ=              0.0000
 Traceless Quadrupole moment (field-independent basis, Debye-Ang):
   XX=              8.1205   YY=             -2.0703   ZZ=             -6.0502
   XY=             -0.0000   XZ=             -0.0000   YZ=              0.0000
 Octapole moment (field-independent basis, Debye-Ang**2):
  XXX=              0.0000  YYY=              0.0000  ZZZ=            -18.6751  XYY=              0.0000
  XXY=              0.0000  XXZ=             -1.6923  XZZ=              0.0000  YZZ=             -0.0000
  YYZ=              6.3978  XYZ=              0.0000
 Hexadecapole moment (field-independent basis, Debye-Ang**3):
 XXXX=            -20.0314 YYYY=           -132.6645 ZZZZ=           -170.6005 XXXY=             -0.0000
 XXXZ=             -0.0000 YYYX=             -0.0000 YYYZ=             -0.0000 ZZZX=             -0.0000
 ZZZY=              0.0000 XXYY=            -23.6283 XXZZ=            -27.5678 YYZZ=            -50.2553
 XXYZ=             -0.0000 YYXZ=             -0.0000 ZZXY=             -0.0000
 N-N= 6.680700227881D+01 E-N=-8.684460912891D+02  KE= 2.989777936141D+02
 Symmetry A1   KE= 1.807748380293D+02
 Symmetry A2   KE= 6.094214399455D+00
 Symmetry B1   KE= 1.134498639260D+01
 Symmetry B2   KE= 1.007637547927D+02
 1\1\GINC-HELIOS\SP\RCCSD(T)-Full\Aug-CC-pVTZ\F3H1(2-)\POHL\03-Jun-2025
 \0\\# CCSD(T)=Full/aug-cc-pVTZ SP\\Single-point energy of X- + Y- at f
 ixed distance R\\-2,1\F,0,0.,0.,2.\F,0,-1.139,0.,0.\H,0,0.,0.,0.\F,0,1
 .139,0.,0.\\Version=EM64L-G16RevB.01\State=1-A1\HF=-298.8111055\MP2=-2
 99.7371024\MP3=-299.7111866\MP4D=-299.7279436\MP4DQ=-299.7165333\MP4SD
 Q=-299.7303699\CCSD=-299.7231899\CCSD(T)=-299.7542432\RMSD=3.871e-09\P
 G=C02V [C2(H1F1),SGV(F2)]\\@


 A SUCCESSFUL PURSUIT OF SCIENCE MAKES A MAN THE
 BENEFACTOR OF ALL MANKIND OF EVERY AGE.
   --  JOSEPH PRIESTLEY, "EXPERIMENTS AND
 OBSERVATIONS ON DIFFERENT KINDS OF AIR", 1774
 Job cpu time:       0 days  0 hours 21 minutes  2.7 seconds.
 Elapsed time:       0 days  0 hours  2 minutes  7.7 seconds.
 File lengths (MBytes):  RWF=    954 Int=      0 D2E=      0 Chk=      3 Scr=      1
 Normal termination of Gaussian 16 at Tue Jun  3 17:04:36 2025.
