 Entering Gaussian System, Link 0=g16
 Initial command:
 /opt/g16/l1.exe "/home/pohl/scratches/g16/Gau-1322266.inp" -scrdir="/home/pohl/scratches/g16/"
 Entering Link 1 = /opt/g16/l1.exe PID=   1322268.
  
 Copyright (c) 1988-2017, Gaussian, Inc.  All Rights Reserved.
  
 This is part of the Gaussian(R) 16 program.  It is based on
 the Gaussian(R) 09 system (copyright 2009, Gaussian, Inc.),
 the Gaussian(R) 03 system (copyright 2003, Gaussian, Inc.),
 the Gaussian(R) 98 system (copyright 1998, Gaussian, Inc.),
 the Gaussian(R) 94 system (copyright 1995, Gaussian, Inc.),
 the Gaussian 92(TM) system (copyright 1992, Gaussian, Inc.),
 the Gaussian 90(TM) system (copyright 1990, Gaussian, Inc.),
 the Gaussian 88(TM) system (copyright 1988, Gaussian, Inc.),
 the Gaussian 86(TM) system (copyright 1986, Carnegie Mellon
 University), and the Gaussian 82(TM) system (copyright 1983,
 Carnegie Mellon University). Gaussian is a federally registered
 trademark of Gaussian, Inc.
  
 This software contains proprietary and confidential information,
 including trade secrets, belonging to Gaussian, Inc.
  
 This software is provided under written license and may be
 used, copied, transmitted, or stored only in accord with that
 written license.
  
 The following legend is applicable only to US Government
 contracts under FAR:
  
                    RESTRICTED RIGHTS LEGEND
  
 Use, reproduction and disclosure by the US Government is
 subject to restrictions as set forth in subparagraphs (a)
 and (c) of the Commercial Computer Software - Restricted
 Rights clause in FAR 52.227-19.
  
 Gaussian, Inc.
 340 Quinnipiac St., Bldg. 40, Wallingford CT 06492
  
  
 ---------------------------------------------------------------
 Warning -- This program may not be used in any manner that
 competes with the business of Gaussian, Inc. or will provide
 assistance to any competitor of Gaussian, Inc.  The licensee
 of this program is prohibited from giving any competitor of
 Gaussian, Inc. access to this program.  By using this program,
 the user acknowledges that Gaussian, Inc. is engaged in the
 business of creating and licensing software in the field of
 computational chemistry and represents and warrants to the
 licensee that it is not a competitor of Gaussian, Inc. and that
 it will not use this program in any manner prohibited above.
 ---------------------------------------------------------------
  

 Cite this work as:
 Gaussian 16, Revision B.01,
 M. J. Frisch, G. W. Trucks, H. B. Schlegel, G. E. Scuseria, 
 M. A. Robb, J. R. Cheeseman, G. Scalmani, V. Barone, 
 G. A. Petersson, H. Nakatsuji, X. Li, M. Caricato, A. V. Marenich, 
 J. Bloino, B. G. Janesko, R. Gomperts, B. Mennucci, H. P. Hratchian, 
 J. V. Ortiz, A. F. Izmaylov, J. L. Sonnenberg, D. Williams-Young, 
 F. Ding, F. Lipparini, F. Egidi, J. Goings, B. Peng, A. Petrone, 
 T. Henderson, D. Ranasinghe, V. G. Zakrzewski, J. Gao, N. Rega, 
 G. Zheng, W. Liang, M. Hada, M. Ehara, K. Toyota, R. Fukuda, 
 J. Hasegawa, M. Ishida, T. Nakajima, Y. Honda, O. Kitao, H. Nakai, 
 T. Vreven, K. Throssell, J. A. Montgomery, Jr., J. E. Peralta, 
 F. Ogliaro, M. J. Bearpark, J. J. Heyd, E. N. Brothers, K. N. Kudin, 
 V. N. Staroverov, T. A. Keith, R. Kobayashi, J. Normand, 
 K. Raghavachari, A. P. Rendell, J. C. Burant, S. S. Iyengar, 
 J. Tomasi, M. Cossi, J. M. Millam, M. Klene, C. Adamo, R. Cammi, 
 J. W. Ochterski, R. L. Martin, K. Morokuma, O. Farkas, 
 J. B. Foresman, and D. J. Fox, Gaussian, Inc., Wallingford CT, 2016.
 
 ******************************************
 Gaussian 16:  EM64L-G16RevB.01 20-Dec-2017
                 8-May-2025 
 ******************************************
 %mem=30GB
 %nprocshared=10
 Will use up to   10 processors via shared memory.
 ---------------------
 # CCSD/aug-cc-pVTZ SP
 ---------------------
 1/38=1,172=1/1;
 2/12=2,17=6,18=5,40=1/2;
 3/5=16,6=1,7=10,11=9,25=1,30=1/1,2,3;
 4//1;
 5/5=2,38=5/2;
 8/6=4,9=120000,10=1/1,4;
 9/5=7/13;
 6/7=2,8=2,9=2,10=2/1;
 99/5=1,9=1/99;
 --------------------------------------------------
 Single-point energy of X- + Y- at fixed distance R
 --------------------------------------------------
 Symbolic Z-matrix:
 Charge = -2 Multiplicity = 1
 F                     0.        0.        2.5 
 F                    -1.139     0.        0. 
 H                     0.        0.        0. 
 F                     1.139     0.        0. 
 
                          Input orientation:                          
 ---------------------------------------------------------------------
 Center     Atomic      Atomic             Coordinates (Angstroms)
 Number     Number       Type             X           Y           Z
 ---------------------------------------------------------------------
      1          9           0        0.000000    0.000000    2.500000
      2          9           0       -1.139000    0.000000    0.000000
      3          1           0        0.000000    0.000000    0.000000
      4          9           0        1.139000    0.000000    0.000000
 ---------------------------------------------------------------------
                    Distance matrix (angstroms):
                    1          2          3          4
     1  F    0.000000
     2  F    2.747239   0.000000
     3  H    2.500000   1.139000   0.000000
     4  F    2.747239   2.278000   1.139000   0.000000
 Stoichiometry    F3H(2-)
 Framework group  C2V[C2(HF),SGV(F2)]
 Deg. of freedom     3
 Full point group                 C2V     NOp   4
 Largest Abelian subgroup         C2V     NOp   4
 Largest concise Abelian subgroup C2      NOp   2
                         Standard orientation:                         
 ---------------------------------------------------------------------
 Center     Atomic      Atomic             Coordinates (Angstroms)
 Number     Number       Type             X           Y           Z
 ---------------------------------------------------------------------
      1          9           0       -0.000000    0.000000    1.696429
      2          9           0        0.000000    1.139000   -0.803571
      3          1           0        0.000000    0.000000   -0.803571
      4          9           0       -0.000000   -1.139000   -0.803571
 ---------------------------------------------------------------------
 Rotational constants (GHZ):          10.2523318           6.3292845           3.9133655
 Standard basis: Aug-CC-pVTZ (5D, 7F)
 There are    74 symmetry adapted cartesian basis functions of A1  symmetry.
 There are    25 symmetry adapted cartesian basis functions of A2  symmetry.
 There are    36 symmetry adapted cartesian basis functions of B1  symmetry.
 There are    55 symmetry adapted cartesian basis functions of B2  symmetry.
 There are    60 symmetry adapted basis functions of A1  symmetry.
 There are    23 symmetry adapted basis functions of A2  symmetry.
 There are    32 symmetry adapted basis functions of B1  symmetry.
 There are    46 symmetry adapted basis functions of B2  symmetry.
   161 basis functions,   243 primitive gaussians,   190 cartesian basis functions
    15 alpha electrons       15 beta electrons
       nuclear repulsion energy        60.2887057698 Hartrees.
 NAtoms=    4 NActive=    4 NUniq=    3 SFac= 1.78D+00 NAtFMM=   60 NAOKFM=F Big=F
 Integral buffers will be    131072 words long.
 Raffenetti 1 integral format.
 Two-electron integral symmetry is turned on.
 One-electron integrals computed using PRISM.
 NBasis=   161 RedAO= T EigKep=  2.85D-04  NBF=    60    23    32    46
 NBsUse=   161 1.00D-06 EigRej= -1.00D+00 NBFU=    60    23    32    46
 ExpMin= 2.53D-02 ExpMax= 1.95D+04 ExpMxC= 6.65D+02 IAcc=3 IRadAn=         5 AccDes= 0.00D+00
 Harris functional with IExCor=  205 and IRadAn=       5 diagonalized for initial guess.
 HarFok:  IExCor=  205 AccDes= 0.00D+00 IRadAn=         5 IDoV= 1 UseB2=F ITyADJ=14
 ICtDFT=  3500011 ScaDFX=  1.000000  1.000000  1.000000  1.000000
 FoFCou: FMM=F IPFlag=           0 FMFlag=      100000 FMFlg1=           0
         NFxFlg=           0 DoJE=T BraDBF=F KetDBF=T FulRan=T
         wScrn=  0.000000 ICntrl=       500 IOpCl=  0 I1Cent=   200000004 NGrid=           0
         NMat0=    1 NMatS0=      1 NMatT0=    0 NMatD0=    1 NMtDS0=    0 NMtDT0=    0
 Petite list used in FoFCou.
 Initial guess orbital symmetries:
       Occupied  (A1) (B2) (A1) (A1) (B2) (A1) (A1) (A1) (B1) (B2)
                 (B2) (A2) (B1) (B2) (A1)
       Virtual   (A1) (B2) (A1) (B1) (A1) (A1) (B2) (B1) (A2) (A1)
                 (B2) (A1) (B1) (B2) (A1) (A1) (A1) (B1) (B2) (A1)
                 (B2) (A2) (A1) (A1) (B1) (A2) (A1) (B1) (A2) (B2)
                 (B2) (A1) (B1) (B2) (B1) (A2) (A1) (B2) (A1) (A1)
                 (B1) (B2) (B2) (A1) (A1) (B1) (A1) (A1) (B2) (B2)
                 (A2) (B2) (A1) (B1) (A2) (B2) (A2) (B2) (A1) (B1)
                 (A1) (A2) (A1) (B2) (B1) (A1) (A2) (B2) (B1) (B1)
                 (A1) (A2) (B2) (B2) (A1) (A2) (B1) (A1) (A1) (B1)
                 (B2) (A1) (A2) (B2) (B2) (A1) (B2) (B1) (A1) (B1)
                 (A1) (A1) (B1) (A1) (A1) (B1) (B2) (A1) (B1) (B2)
                 (A2) (A1) (B2) (A2) (B2) (B2) (A1) (B2) (B1) (A2)
                 (A1) (B2) (B1) (A2) (B2) (A2) (A1) (B1) (A1) (B2)
                 (B1) (A1) (B2) (A2) (A2) (B2) (A1) (B1) (A2) (B1)
                 (A1) (B2) (A1) (B1) (B2) (A1) (B1) (A1) (A1) (A2)
                 (B2) (A1) (B2) (A1) (B2) (A1)
 The electronic state of the initial guess is 1-A1.
 Keep R1 ints in memory in symmetry-blocked form, NReq=106592091.
 Requested convergence on RMS density matrix=1.00D-08 within 128 cycles.
 Requested convergence on MAX density matrix=1.00D-06.
 Requested convergence on             energy=1.00D-06.
 No special actions if energy rises.
 SCF Done:  E(RHF) =  -298.851473078     A.U. after   12 cycles
            NFock= 12  Conv=0.19D-08     -V/T= 1.9999
 ExpMin= 2.53D-02 ExpMax= 1.95D+04 ExpMxC= 6.65D+02 IAcc=3 IRadAn=         5 AccDes= 0.00D+00
 HarFok:  IExCor=  205 AccDes= 0.00D+00 IRadAn=         5 IDoV=-2 UseB2=F ITyADJ=14
 ICtDFT= 12500011 ScaDFX=  1.000000  1.000000  1.000000  1.000000
 Range of M.O.s used for correlation:     4   161
 NBasis=   161 NAE=    15 NBE=    15 NFC=     3 NFV=     0
 NROrb=    158 NOA=    12 NOB=    12 NVA=   146 NVB=   146

 **** Warning!!: The largest alpha MO coefficient is  0.18817773D+02

 Semi-Direct transformation.
 ModeAB=           4 MOrb=            12 LenV=    4025759195
 LASXX=      5679395 LTotXX=     5679395 LenRXX=    11479218
 LTotAB=     5799823 MaxLAS=    20984928 LenRXY=           0
 NonZer=    17158613 LenScr=    26512384 LnRSAI=    20984928
 LnScr1=    32234496 LExtra=           0 Total=     91211026
 MaxDsk=          -1 SrtSym=           T ITran=            4
 JobTyp=0 Pass  1:  I=   1 to  12.
 (rs|ai) integrals will be sorted in core.
 Spin components of T(2) and E(2):
     alpha-alpha T2 =       0.2574102937D-01 E2=     -0.1164487939D+00
     alpha-beta  T2 =       0.1310878919D+00 E2=     -0.6470895160D+00
     beta-beta   T2 =       0.2574102937D-01 E2=     -0.1164487939D+00
 ANorm=    0.1087460321D+01
 E2 =    -0.8799871039D+00 EUMP2 =    -0.29973146018184D+03
 Keep R2 and R3 ints in memory in symmetry-blocked form, NReq=106598451.
 CIDS: In Core Option IDoMem=           1.
 Iterations=  50 Convergence= 0.100D-06
 Produce multiple copies of IABC intergrals
 Iteration Nr.   1
 **********************
 DD1Dir will call FoFMem   1 times, MxPair=       156
 NAB=    78 NAA=     0 NBB=     0.
 MP4(R+Q)=  0.10478161D-01
 E3=        0.24516203D-01        EUMP3=      -0.29970694398D+03
 E4(DQ)=   -0.58302871D-02        UMP4(DQ)=   -0.29971277427D+03
 E4(SDQ)=  -0.18613062D-01        UMP4(SDQ)=  -0.29972555704D+03
 DE(Corr)= -0.84396474     E(Corr)=     -299.69543782    
 NORM(A)=   0.10818215D+01
 Iteration Nr.   2
 **********************
 DD1Dir will call FoFMem   1 times, MxPair=       156
 NAB=    78 NAA=     0 NBB=     0.
 DE(Corr)= -0.86851058     E(CORR)=     -299.71998366     Delta=-2.45D-02
 NORM(A)=   0.10876066D+01
 Iteration Nr.   3
 **********************
 DD1Dir will call FoFMem   1 times, MxPair=       156
 NAB=    78 NAA=     0 NBB=     0.
 DE(Corr)= -0.86499162     E(CORR)=     -299.71646470     Delta= 3.52D-03
 NORM(A)=   0.10903461D+01
 Iteration Nr.   4
 **********************
 DD1Dir will call FoFMem   1 times, MxPair=       156
 NAB=    78 NAA=     0 NBB=     0.
 DE(Corr)= -0.86716861     E(CORR)=     -299.71864169     Delta=-2.18D-03
 NORM(A)=   0.10914669D+01
 Iteration Nr.   5
 **********************
 DD1Dir will call FoFMem   1 times, MxPair=       156
 NAB=    78 NAA=     0 NBB=     0.
 DE(Corr)= -0.86740336     E(CORR)=     -299.71887643     Delta=-2.35D-04
 NORM(A)=   0.10917933D+01
 Iteration Nr.   6
 **********************
 DD1Dir will call FoFMem   1 times, MxPair=       156
 NAB=    78 NAA=     0 NBB=     0.
 DE(Corr)= -0.86741895     E(CORR)=     -299.71889203     Delta=-1.56D-05
 NORM(A)=   0.10919201D+01
 Iteration Nr.   7
 **********************
 DD1Dir will call FoFMem   1 times, MxPair=       156
 NAB=    78 NAA=     0 NBB=     0.
 DE(Corr)= -0.86741576     E(CORR)=     -299.71888884     Delta= 3.19D-06
 NORM(A)=   0.10919443D+01
 Iteration Nr.   8
 **********************
 DD1Dir will call FoFMem   1 times, MxPair=       156
 NAB=    78 NAA=     0 NBB=     0.
 DE(Corr)= -0.86742906     E(CORR)=     -299.71890213     Delta=-1.33D-05
 NORM(A)=   0.10919540D+01
 Iteration Nr.   9
 **********************
 DD1Dir will call FoFMem   1 times, MxPair=       156
 NAB=    78 NAA=     0 NBB=     0.
 DE(Corr)= -0.86741282     E(CORR)=     -299.71888590     Delta= 1.62D-05
 NORM(A)=   0.10919598D+01
 Iteration Nr.  10
 **********************
 DD1Dir will call FoFMem   1 times, MxPair=       156
 NAB=    78 NAA=     0 NBB=     0.
 DE(Corr)= -0.86742085     E(CORR)=     -299.71889393     Delta=-8.03D-06
 NORM(A)=   0.10919566D+01
 Iteration Nr.  11
 **********************
 DD1Dir will call FoFMem   1 times, MxPair=       156
 NAB=    78 NAA=     0 NBB=     0.
 DE(Corr)= -0.86741726     E(CORR)=     -299.71889034     Delta= 3.59D-06
 NORM(A)=   0.10919554D+01
 Iteration Nr.  12
 **********************
 DD1Dir will call FoFMem   1 times, MxPair=       156
 NAB=    78 NAA=     0 NBB=     0.
 DE(Corr)= -0.86741756     E(CORR)=     -299.71889063     Delta=-2.98D-07
 NORM(A)=   0.10919538D+01
 Iteration Nr.  13
 **********************
 DD1Dir will call FoFMem   1 times, MxPair=       156
 NAB=    78 NAA=     0 NBB=     0.
 DE(Corr)= -0.86741747     E(CORR)=     -299.71889055     Delta= 8.86D-08
 NORM(A)=   0.10919529D+01
 Wavefunction amplitudes converged. E(Corr)=     -299.71889055    
 Largest amplitude= 3.25D-02
 Discarding MO integrals.

 **********************************************************************

            Population analysis using the SCF Density.

 **********************************************************************

 Orbital symmetries:
       Occupied  (B2) (A1) (A1) (A1) (B2) (A1) (A1) (B1) (A1) (A2)
                 (B2) (B2) (B1) (B2) (A1)
       Virtual   (A1) (B2) (A1) (A1) (B1) (A2) (B2) (A1) (B1) (B2)
                 (A1) (B2) (B1) (A1) (A1) (A1) (B2) (A1) (B1) (A1)
                 (A2) (B2) (A1) (B1) (A1) (A2) (A1) (A2) (B2) (A1)
                 (B1) (B2) (B1) (A2) (B2) (A1) (B1) (A1) (B2) (A1)
                 (B1) (B2) (A1) (B2) (A1) (B1) (A1) (A2) (B2) (A1)
                 (B2) (B2) (A1) (B1) (A2) (B2) (A2) (A1) (B2) (B1)
                 (B2) (A1) (A2) (B1) (A1) (B2) (A2) (A1) (A2) (B1)
                 (B1) (B2) (A1) (A1) (B2) (A2) (A1) (B1) (A1) (B1)
                 (A1) (B2) (A2) (B2) (B2) (A1) (B2) (B1) (A1) (B1)
                 (A1) (A1) (B1) (A1) (A1) (B2) (B2) (B1) (A1) (B1)
                 (A2) (B2) (A1) (A2) (B2) (B2) (A1) (B1) (B2) (A2)
                 (A1) (B2) (A2) (B1) (B2) (A2) (A1) (B1) (A1) (B2)
                 (B1) (A1) (A2) (B2) (B2) (A2) (B1) (A1) (B1) (B2)
                 (A1) (A2) (A1) (B1) (B1) (A1) (B2) (A1) (A1) (A2)
                 (B2) (A1) (B2) (A1) (B2) (A1)
 The electronic state is 1-A1.
 Alpha  occ. eigenvalues --  -25.78047 -25.78045 -25.66582  -1.08135  -1.03493
 Alpha  occ. eigenvalues --   -0.90887  -0.29067  -0.15395  -0.15364  -0.12764
 Alpha  occ. eigenvalues --   -0.12756  -0.10791  -0.01297  -0.01218  -0.01040
 Alpha virt. eigenvalues --    0.31763   0.42226   0.48473   0.49642   0.50205
 Alpha virt. eigenvalues --    0.57861   0.59004   0.59184   0.60648   0.62354
 Alpha virt. eigenvalues --    0.63874   0.73010   0.78849   0.81094   0.81811
 Alpha virt. eigenvalues --    0.91588   1.07855   1.10011   1.17638   1.27483
 Alpha virt. eigenvalues --    1.32048   1.32869   1.36798   1.37527   1.39606
 Alpha virt. eigenvalues --    1.46191   1.47688   1.47881   1.48296   1.52612
 Alpha virt. eigenvalues --    1.52614   1.53264   1.60395   1.64102   1.64362
 Alpha virt. eigenvalues --    1.64594   1.64647   1.66131   1.66906   1.71617
 Alpha virt. eigenvalues --    1.73444   1.75755   1.88654   1.92594   2.04399
 Alpha virt. eigenvalues --    2.17751   2.25339   2.42396   2.43801   2.44077
 Alpha virt. eigenvalues --    2.54632   3.02660   3.12522   3.28815   3.29407
 Alpha virt. eigenvalues --    3.29789   3.32203   3.34860   3.36039   3.36482
 Alpha virt. eigenvalues --    3.37459   3.38371   3.38860   3.43329   3.44002
 Alpha virt. eigenvalues --    3.45155   3.45519   3.47176   3.47747   3.48605
 Alpha virt. eigenvalues --    3.49682   3.50314   3.51429   3.55479   3.57238
 Alpha virt. eigenvalues --    3.59415   3.62712   3.62730   3.81165   3.81258
 Alpha virt. eigenvalues --    3.89730   3.90165   4.01074   4.03010   4.04256
 Alpha virt. eigenvalues --    4.10412   4.21026   4.37394   4.43719   4.68953
 Alpha virt. eigenvalues --    4.71886   4.93290   4.97661   5.03746   5.54311
 Alpha virt. eigenvalues --    5.80406   5.82339   5.83589   5.84958   5.85506
 Alpha virt. eigenvalues --    5.93701   6.04188   6.14951   6.53377   6.54264
 Alpha virt. eigenvalues --    7.64561   8.57031   9.31941   9.31958   9.32519
 Alpha virt. eigenvalues --    9.33319   9.34347   9.34955   9.43451   9.43712
 Alpha virt. eigenvalues --    9.44339   9.45101   9.45155   9.50859   9.51113
 Alpha virt. eigenvalues --    9.58167   9.60598   9.72962   9.73021   9.75972
 Alpha virt. eigenvalues --    9.82297   9.83526   9.85129   9.86866   9.89242
 Alpha virt. eigenvalues --    9.90329   9.93380   9.94542   9.96993  10.03365
 Alpha virt. eigenvalues --   10.04612  10.06194  10.10320  10.17547  10.22309
 Alpha virt. eigenvalues --   10.25697  10.59310  10.70950  11.62773  13.69818
 Alpha virt. eigenvalues --   15.59983
          Condensed to atoms (all electrons):
               1          2          3          4
     1  F   10.130697  -0.049858  -0.010699  -0.049858
     2  F   -0.049858   9.867275   0.091912  -0.139426
     3  H   -0.010699   0.091912   0.266788   0.091912
     4  F   -0.049858  -0.139426   0.091912   9.867275
 Mulliken charges:
               1
     1  F   -1.020282
     2  F   -0.769902
     3  H    0.560087
     4  F   -0.769902
 Sum of Mulliken charges =  -2.00000
 Mulliken charges with hydrogens summed into heavy atoms:
               1
     1  F   -1.020282
     2  F   -0.209815
     4  F   -0.769902
 Electronic spatial extent (au):  <R**2>=            286.5560
 Charge=             -2.0000 electrons
 Dipole moment (field-independent basis, Debye):
    X=              0.0000    Y=             -0.0000    Z=             -4.0611  Tot=              4.0611
 Quadrupole moment (field-independent basis, Debye-Ang):
   XX=            -20.0396   YY=            -29.8501   ZZ=            -40.0379
   XY=             -0.0000   XZ=             -0.0000   YZ=             -0.0000
 Traceless Quadrupole moment (field-independent basis, Debye-Ang):
   XX=              9.9363   YY=              0.1258   ZZ=            -10.0621
   XY=             -0.0000   XZ=             -0.0000   YZ=             -0.0000
 Octapole moment (field-independent basis, Debye-Ang**2):
  XXX=              0.0000  YYY=              0.0000  ZZZ=            -30.5299  XYY=              0.0000
  XXY=              0.0000  XXZ=             -2.1218  XZZ=              0.0000  YZZ=             -0.0000
  YYZ=              6.8627  XYZ=              0.0000
 Hexadecapole moment (field-independent basis, Debye-Ang**3):
 XXXX=            -19.4152 YYYY=           -128.9843 ZZZZ=           -258.4285 XXXY=             -0.0000
 XXXZ=             -0.0000 YYYX=             -0.0000 YYYZ=             -0.0000 ZZZX=             -0.0000
 ZZZY=              0.0000 XXYY=            -23.0835 XXZZ=            -37.4643 YYZZ=            -61.8102
 XXYZ=              0.0000 YYXZ=             -0.0000 ZZXY=             -0.0000
 N-N= 6.028870576985D+01 E-N=-8.546545148926D+02  KE= 2.988717395831D+02
 Symmetry A1   KE= 1.806494180088D+02
 Symmetry A2   KE= 6.120025005169D+00
 Symmetry B1   KE= 1.138693039607D+01
 Symmetry B2   KE= 1.007153661730D+02
 1\1\GINC-HELIOS\SP\RCCSD-FC\Aug-CC-pVTZ\F3H1(2-)\POHL\08-May-2025\0\\#
  CCSD/aug-cc-pVTZ SP\\Single-point energy of X- + Y- at fixed distance
  R\\-2,1\F,0,0.,0.,2.5\F,0,-1.139,0.,0.\H,0,0.,0.,0.\F,0,1.139,0.,0.\\
 Version=EM64L-G16RevB.01\State=1-A1\HF=-298.8514731\MP2=-299.7314602\M
 P3=-299.706944\MP4D=-299.7232524\MP4DQ=-299.7127743\MP4SDQ=-299.725557
 \CCSD=-299.7188905\RMSD=1.921e-09\PG=C02V [C2(H1F1),SGV(F2)]\\@


 Happiness is a conscious choice, not an automatic response.
 -- Mildred Barthel
 Job cpu time:       0 days  0 hours  5 minutes 24.9 seconds.
 Elapsed time:       0 days  0 hours  0 minutes 32.6 seconds.
 File lengths (MBytes):  RWF=    734 Int=      0 D2E=      0 Chk=      3 Scr=      1
 Normal termination of Gaussian 16 at Thu May  8 14:40:11 2025.
