 Entering Gaussian System, Link 0=g16
 Initial command:
 /opt/g16/l1.exe "/home/pohl/scratches/g16/Gau-1290458.inp" -scrdir="/home/pohl/scratches/g16/"
 Entering Link 1 = /opt/g16/l1.exe PID=   1290460.
  
 Copyright (c) 1988-2017, Gaussian, Inc.  All Rights Reserved.
  
 This is part of the Gaussian(R) 16 program.  It is based on
 the Gaussian(R) 09 system (copyright 2009, Gaussian, Inc.),
 the Gaussian(R) 03 system (copyright 2003, Gaussian, Inc.),
 the Gaussian(R) 98 system (copyright 1998, Gaussian, Inc.),
 the Gaussian(R) 94 system (copyright 1995, Gaussian, Inc.),
 the Gaussian 92(TM) system (copyright 1992, Gaussian, Inc.),
 the Gaussian 90(TM) system (copyright 1990, Gaussian, Inc.),
 the Gaussian 88(TM) system (copyright 1988, Gaussian, Inc.),
 the Gaussian 86(TM) system (copyright 1986, Carnegie Mellon
 University), and the Gaussian 82(TM) system (copyright 1983,
 Carnegie Mellon University). Gaussian is a federally registered
 trademark of Gaussian, Inc.
  
 This software contains proprietary and confidential information,
 including trade secrets, belonging to Gaussian, Inc.
  
 This software is provided under written license and may be
 used, copied, transmitted, or stored only in accord with that
 written license.
  
 The following legend is applicable only to US Government
 contracts under FAR:
  
                    RESTRICTED RIGHTS LEGEND
  
 Use, reproduction and disclosure by the US Government is
 subject to restrictions as set forth in subparagraphs (a)
 and (c) of the Commercial Computer Software - Restricted
 Rights clause in FAR 52.227-19.
  
 Gaussian, Inc.
 340 Quinnipiac St., Bldg. 40, Wallingford CT 06492
  
  
 ---------------------------------------------------------------
 Warning -- This program may not be used in any manner that
 competes with the business of Gaussian, Inc. or will provide
 assistance to any competitor of Gaussian, Inc.  The licensee
 of this program is prohibited from giving any competitor of
 Gaussian, Inc. access to this program.  By using this program,
 the user acknowledges that Gaussian, Inc. is engaged in the
 business of creating and licensing software in the field of
 computational chemistry and represents and warrants to the
 licensee that it is not a competitor of Gaussian, Inc. and that
 it will not use this program in any manner prohibited above.
 ---------------------------------------------------------------
  

 Cite this work as:
 Gaussian 16, Revision B.01,
 M. J. Frisch, G. W. Trucks, H. B. Schlegel, G. E. Scuseria, 
 M. A. Robb, J. R. Cheeseman, G. Scalmani, V. Barone, 
 G. A. Petersson, H. Nakatsuji, X. Li, M. Caricato, A. V. Marenich, 
 J. Bloino, B. G. Janesko, R. Gomperts, B. Mennucci, H. P. Hratchian, 
 J. V. Ortiz, A. F. Izmaylov, J. L. Sonnenberg, D. Williams-Young, 
 F. Ding, F. Lipparini, F. Egidi, J. Goings, B. Peng, A. Petrone, 
 T. Henderson, D. Ranasinghe, V. G. Zakrzewski, J. Gao, N. Rega, 
 G. Zheng, W. Liang, M. Hada, M. Ehara, K. Toyota, R. Fukuda, 
 J. Hasegawa, M. Ishida, T. Nakajima, Y. Honda, O. Kitao, H. Nakai, 
 T. Vreven, K. Throssell, J. A. Montgomery, Jr., J. E. Peralta, 
 F. Ogliaro, M. J. Bearpark, J. J. Heyd, E. N. Brothers, K. N. Kudin, 
 V. N. Staroverov, T. A. Keith, R. Kobayashi, J. Normand, 
 K. Raghavachari, A. P. Rendell, J. C. Burant, S. S. Iyengar, 
 J. Tomasi, M. Cossi, J. M. Millam, M. Klene, C. Adamo, R. Cammi, 
 J. W. Ochterski, R. L. Martin, K. Morokuma, O. Farkas, 
 J. B. Foresman, and D. J. Fox, Gaussian, Inc., Wallingford CT, 2016.
 
 ******************************************
 Gaussian 16:  EM64L-G16RevB.01 20-Dec-2017
                 7-May-2025 
 ******************************************
 %mem=30GB
 %nprocshared=10
 Will use up to   10 processors via shared memory.
 ---------------------
 # CCSD/aug-cc-pVTZ SP
 ---------------------
 1/38=1,172=1/1;
 2/12=2,17=6,18=5,40=1/2;
 3/5=16,6=1,7=10,11=9,25=1,30=1/1,2,3;
 4//1;
 5/5=2,38=5/2;
 8/6=4,9=120000,10=1/1,4;
 9/5=7/13;
 6/7=2,8=2,9=2,10=2/1;
 99/5=1,9=1/99;
 --------------------------------------------------
 Single-point energy of X- + Y- at fixed distance R
 --------------------------------------------------
 Symbolic Z-matrix:
 Charge = -2 Multiplicity = 1
 F                     0.        0.        11.5 
 F                    -1.139     0.        0. 
 H                     0.        0.        0. 
 F                     1.139     0.        0. 
 
                          Input orientation:                          
 ---------------------------------------------------------------------
 Center     Atomic      Atomic             Coordinates (Angstroms)
 Number     Number       Type             X           Y           Z
 ---------------------------------------------------------------------
      1          9           0        0.000000    0.000000   11.500000
      2          9           0       -1.139000    0.000000    0.000000
      3          1           0        0.000000    0.000000    0.000000
      4          9           0        1.139000    0.000000    0.000000
 ---------------------------------------------------------------------
                    Distance matrix (angstroms):
                    1          2          3          4
     1  F    0.000000
     2  F   11.556268   0.000000
     3  H   11.500000   1.139000   0.000000
     4  F   11.556268   2.278000   1.139000   0.000000
 Stoichiometry    F3H(2-)
 Framework group  C2V[C2(HF),SGV(F2)]
 Deg. of freedom     3
 Full point group                 C2V     NOp   4
 Largest Abelian subgroup         C2V     NOp   4
 Largest concise Abelian subgroup C2      NOp   2
                         Standard orientation:                         
 ---------------------------------------------------------------------
 Center     Atomic      Atomic             Coordinates (Angstroms)
 Number     Number       Type             X           Y           Z
 ---------------------------------------------------------------------
      1          9           0       -0.000000    0.000000    7.803571
      2          9           0        0.000000    1.139000   -3.696429
      3          1           0        0.000000    0.000000   -3.696429
      4          9           0       -0.000000   -1.139000   -3.696429
 ---------------------------------------------------------------------
 Rotational constants (GHZ):          10.2523318           0.2991155           0.2906361
 Standard basis: Aug-CC-pVTZ (5D, 7F)
 There are    74 symmetry adapted cartesian basis functions of A1  symmetry.
 There are    25 symmetry adapted cartesian basis functions of A2  symmetry.
 There are    36 symmetry adapted cartesian basis functions of B1  symmetry.
 There are    55 symmetry adapted cartesian basis functions of B2  symmetry.
 There are    60 symmetry adapted basis functions of A1  symmetry.
 There are    23 symmetry adapted basis functions of A2  symmetry.
 There are    32 symmetry adapted basis functions of B1  symmetry.
 There are    46 symmetry adapted basis functions of B2  symmetry.
   161 basis functions,   243 primitive gaussians,   190 cartesian basis functions
    15 alpha electrons       15 beta electrons
       nuclear repulsion energy        35.0113265834 Hartrees.
 NAtoms=    4 NActive=    4 NUniq=    3 SFac= 1.78D+00 NAtFMM=   60 NAOKFM=F Big=F
 Integral buffers will be    131072 words long.
 Raffenetti 1 integral format.
 Two-electron integral symmetry is turned on.
 One-electron integrals computed using PRISM.
 NBasis=   161 RedAO= T EigKep=  2.93D-04  NBF=    60    23    32    46
 NBsUse=   161 1.00D-06 EigRej= -1.00D+00 NBFU=    60    23    32    46
 ExpMin= 2.53D-02 ExpMax= 1.95D+04 ExpMxC= 6.65D+02 IAcc=3 IRadAn=         5 AccDes= 0.00D+00
 Harris functional with IExCor=  205 and IRadAn=       5 diagonalized for initial guess.
 HarFok:  IExCor=  205 AccDes= 0.00D+00 IRadAn=         5 IDoV= 1 UseB2=F ITyADJ=14
 ICtDFT=  3500011 ScaDFX=  1.000000  1.000000  1.000000  1.000000
 FoFCou: FMM=F IPFlag=           0 FMFlag=      100000 FMFlg1=           0
         NFxFlg=           0 DoJE=T BraDBF=F KetDBF=T FulRan=T
         wScrn=  0.000000 ICntrl=       500 IOpCl=  0 I1Cent=   200000004 NGrid=           0
         NMat0=    1 NMatS0=      1 NMatT0=    0 NMatD0=    1 NMtDS0=    0 NMtDT0=    0
 Petite list used in FoFCou.
 Initial guess orbital symmetries:
       Occupied  (A1) (B2) (A1) (A1) (B2) (A1) (A1) (B1) (A1) (B2)
                 (B2) (A2) (A1) (B1) (B2)
       Virtual   (A1) (B2) (A1) (B1) (A1) (A1) (A1) (B2) (B1) (A1)
                 (B2) (A2) (B2) (B1) (A1) (A1) (A1) (B2) (B1) (A1)
                 (A1) (B1) (A2) (A1) (B2) (B2) (A2) (B1) (A1) (B2)
                 (A2) (A1) (A1) (B1) (B2) (B1) (A1) (B2) (A2) (B2)
                 (A1) (A1) (B1) (B2) (A1) (A1) (A1) (B1) (B2) (A2)
                 (B2) (B2) (A1) (A1) (B1) (B2) (A2) (B2) (A2) (A1)
                 (B1) (A2) (A1) (B2) (B1) (A1) (B1) (A1) (A2) (B2)
                 (B1) (B2) (A2) (A1) (B1) (B2) (A1) (A2) (B2) (A1)
                 (B1) (A1) (B2) (A2) (B2) (A1) (B2) (A1) (B1) (B1)
                 (A1) (A1) (A1) (B1) (A1) (B2) (B1) (A1) (A1) (B1)
                 (B2) (A2) (B2) (A2) (B2) (B2) (A1) (B1) (A1) (A2)
                 (B2) (B1) (B2) (A1) (A2) (B1) (B2) (A1) (A2) (B2)
                 (B1) (A1) (B2) (A1) (B1) (A2) (A1) (B2) (A2) (B2)
                 (B2) (A2) (A1) (B1) (B1) (A1) (A1) (B1) (A1) (B2)
                 (A2) (A1) (B2) (A1) (B2) (A1)
 The electronic state of the initial guess is 1-A1.
 Keep R1 ints in memory in symmetry-blocked form, NReq=106592091.
 Requested convergence on RMS density matrix=1.00D-08 within 128 cycles.
 Requested convergence on MAX density matrix=1.00D-06.
 Requested convergence on             energy=1.00D-06.
 No special actions if energy rises.
 SCF Done:  E(RHF) =  -298.982622308     A.U. after   10 cycles
            NFock= 10  Conv=0.53D-08     -V/T= 2.0004
 ExpMin= 2.53D-02 ExpMax= 1.95D+04 ExpMxC= 6.65D+02 IAcc=3 IRadAn=         5 AccDes= 0.00D+00
 HarFok:  IExCor=  205 AccDes= 0.00D+00 IRadAn=         5 IDoV=-2 UseB2=F ITyADJ=14
 ICtDFT= 12500011 ScaDFX=  1.000000  1.000000  1.000000  1.000000
 Range of M.O.s used for correlation:     4   161
 NBasis=   161 NAE=    15 NBE=    15 NFC=     3 NFV=     0
 NROrb=    158 NOA=    12 NOB=    12 NVA=   146 NVB=   146

 **** Warning!!: The largest alpha MO coefficient is  0.21661649D+02

 Semi-Direct transformation.
 ModeAB=           4 MOrb=            12 LenV=    4025787716
 LASXX=      5679395 LTotXX=     5679395 LenRXX=    11479218
 LTotAB=     5799823 MaxLAS=    13482456 LenRXY=           0
 NonZer=    17158613 LenScr=    26512384 LnRSAI=    13482456
 LnScr1=    20998656 LExtra=           0 Total=     72472714
 MaxDsk=          -1 SrtSym=           T ITran=            4
 JobTyp=0 Pass  1:  I=   1 to  12.
 (rs|ai) integrals will be sorted in core.
 Spin components of T(2) and E(2):
     alpha-alpha T2 =       0.2526500249D-01 E2=     -0.1154941846D+00
     alpha-beta  T2 =       0.1294495164D+00 E2=     -0.6443801373D+00
     beta-beta   T2 =       0.2526500249D-01 E2=     -0.1154941846D+00
 ANorm=    0.1086268623D+01
 E2 =    -0.8753685066D+00 EUMP2 =    -0.29985799081468D+03
 Keep R2 and R3 ints in memory in symmetry-blocked form, NReq=106598451.
 CIDS: In Core Option IDoMem=           1.
 Iterations=  50 Convergence= 0.100D-06
 Produce multiple copies of IABC intergrals
 Iteration Nr.   1
 **********************
 DD1Dir will call FoFMem   1 times, MxPair=       156
 NAB=    78 NAA=     0 NBB=     0.
 MP4(R+Q)=  0.10075343D-01
 E3=        0.23410543D-01        EUMP3=      -0.29983458027D+03
 E4(DQ)=   -0.57953450D-02        UMP4(DQ)=   -0.29984037562D+03
 E4(SDQ)=  -0.17478035D-01        UMP4(SDQ)=  -0.29985205831D+03
 DE(Corr)= -0.84100515     E(Corr)=     -299.82362746    
 NORM(A)=   0.10803561D+01
 Iteration Nr.   2
 **********************
 DD1Dir will call FoFMem   1 times, MxPair=       156
 NAB=    78 NAA=     0 NBB=     0.
 DE(Corr)= -0.86412036     E(CORR)=     -299.84674267     Delta=-2.31D-02
 NORM(A)=   0.10859330D+01
 Iteration Nr.   3
 **********************
 DD1Dir will call FoFMem   1 times, MxPair=       156
 NAB=    78 NAA=     0 NBB=     0.
 DE(Corr)= -0.86122773     E(CORR)=     -299.84385004     Delta= 2.89D-03
 NORM(A)=   0.10881128D+01
 Iteration Nr.   4
 **********************
 DD1Dir will call FoFMem   1 times, MxPair=       156
 NAB=    78 NAA=     0 NBB=     0.
 DE(Corr)= -0.86312217     E(CORR)=     -299.84574448     Delta=-1.89D-03
 NORM(A)=   0.10889552D+01
 Iteration Nr.   5
 **********************
 DD1Dir will call FoFMem   1 times, MxPair=       156
 NAB=    78 NAA=     0 NBB=     0.
 DE(Corr)= -0.86331481     E(CORR)=     -299.84593712     Delta=-1.93D-04
 NORM(A)=   0.10891399D+01
 Iteration Nr.   6
 **********************
 DD1Dir will call FoFMem   1 times, MxPair=       156
 NAB=    78 NAA=     0 NBB=     0.
 DE(Corr)= -0.86332281     E(CORR)=     -299.84594512     Delta=-8.00D-06
 NORM(A)=   0.10891939D+01
 Iteration Nr.   7
 **********************
 DD1Dir will call FoFMem   1 times, MxPair=       156
 NAB=    78 NAA=     0 NBB=     0.
 DE(Corr)= -0.86332073     E(CORR)=     -299.84594304     Delta= 2.08D-06
 NORM(A)=   0.10891983D+01
 Iteration Nr.   8
 **********************
 DD1Dir will call FoFMem   1 times, MxPair=       156
 NAB=    78 NAA=     0 NBB=     0.
 DE(Corr)= -0.86332215     E(CORR)=     -299.84594446     Delta=-1.41D-06
 NORM(A)=   0.10892008D+01
 Iteration Nr.   9
 **********************
 DD1Dir will call FoFMem   1 times, MxPair=       156
 NAB=    78 NAA=     0 NBB=     0.
 DE(Corr)= -0.86332050     E(CORR)=     -299.84594281     Delta= 1.64D-06
 NORM(A)=   0.10892015D+01
 Iteration Nr.  10
 **********************
 DD1Dir will call FoFMem   1 times, MxPair=       156
 NAB=    78 NAA=     0 NBB=     0.
 DE(Corr)= -0.86332121     E(CORR)=     -299.84594352     Delta=-7.07D-07
 NORM(A)=   0.10892015D+01
 Iteration Nr.  11
 **********************
 DD1Dir will call FoFMem   1 times, MxPair=       156
 NAB=    78 NAA=     0 NBB=     0.
 DE(Corr)= -0.86332096     E(CORR)=     -299.84594327     Delta= 2.47D-07
 NORM(A)=   0.10892016D+01
 Iteration Nr.  12
 **********************
 DD1Dir will call FoFMem   1 times, MxPair=       156
 NAB=    78 NAA=     0 NBB=     0.
 DE(Corr)= -0.86332103     E(CORR)=     -299.84594334     Delta=-6.97D-08
 NORM(A)=   0.10892016D+01
 Wavefunction amplitudes converged. E(Corr)=     -299.84594334    
 Largest amplitude= 3.68D-02
 Discarding MO integrals.

 **********************************************************************

            Population analysis using the SCF Density.

 **********************************************************************

 Orbital symmetries:
       Occupied  (B2) (A1) (A1) (A1) (B2) (A1) (A1) (B1) (A1) (A2)
                 (B2) (B2) (A1) (B2) (B1)
       Virtual   (A1) (B2) (B1) (A1) (A1) (A2) (B2) (B1) (B2) (A1)
                 (A1) (A1) (B2) (B1) (A1) (A1) (B2) (A1) (B1) (A1)
                 (A2) (B2) (B1) (A1) (A1) (A2) (B1) (B2) (A1) (A1)
                 (A2) (B2) (B1) (A1) (A2) (B2) (B2) (B1) (A1) (A1)
                 (B1) (B2) (A1) (B2) (A1) (B1) (A1) (A1) (A2) (B2)
                 (B2) (B2) (A1) (B1) (A1) (A2) (B2) (A2) (B2) (B1)
                 (A1) (A2) (B2) (B1) (A1) (A1) (A2) (B1) (B2) (A1)
                 (A2) (B2) (B1) (B2) (A1) (A2) (B1) (B2) (A1) (A1)
                 (B1) (A1) (B2) (A2) (B2) (A1) (B2) (B1) (A1) (B1)
                 (A1) (A1) (B1) (A1) (A1) (B2) (B1) (A1) (B1) (B2)
                 (A1) (A2) (B2) (A2) (B2) (B2) (A1) (B1) (A1) (A2)
                 (B2) (A2) (B2) (B1) (B2) (A1) (A2) (B1) (B2) (A1)
                 (B1) (A1) (B2) (A2) (B2) (A2) (B2) (B1) (A1) (B1)
                 (A1) (A1) (A2) (B1) (B2) (A1) (B1) (A1) (A1) (A2)
                 (B2) (A1) (B2) (A1) (B2) (A1)
 The electronic state is 1-A1.
 Alpha  occ. eigenvalues --  -25.91167 -25.91165 -25.78806  -1.21404  -1.16676
 Alpha  occ. eigenvalues --   -1.03039  -0.42318  -0.28536  -0.28532  -0.25885
 Alpha  occ. eigenvalues --   -0.25883  -0.23797  -0.13532  -0.13532  -0.13532
 Alpha virt. eigenvalues --    0.24127   0.34997   0.40085   0.40136   0.40488
 Alpha virt. eigenvalues --    0.47923   0.48033   0.48780   0.48781   0.48859
 Alpha virt. eigenvalues --    0.52328   0.53159   0.59183   0.66672   0.66749
 Alpha virt. eigenvalues --    0.76572   0.95008   0.96499   1.04528   1.04529
 Alpha virt. eigenvalues --    1.24548   1.24548   1.25453   1.25492   1.27394
 Alpha virt. eigenvalues --    1.27394   1.27420   1.27420   1.27429   1.31955
 Alpha virt. eigenvalues --    1.35927   1.35960   1.47206   1.47240   1.50222
 Alpha virt. eigenvalues --    1.50254   1.50509   1.51743   1.51744   1.52362
 Alpha virt. eigenvalues --    1.57153   1.57154   1.57185   1.62174   1.73850
 Alpha virt. eigenvalues --    2.04835   2.04866   2.09678   2.29975   2.30013
 Alpha virt. eigenvalues --    2.39980   2.89328   2.98277   3.14993   3.14993
 Alpha virt. eigenvalues --    3.16995   3.17007   3.20395   3.20395   3.25984
 Alpha virt. eigenvalues --    3.25984   3.27335   3.27335   3.30951   3.30965
 Alpha virt. eigenvalues --    3.32890   3.32890   3.32900   3.32900   3.32903
 Alpha virt. eigenvalues --    3.35467   3.35467   3.37726   3.37726   3.37736
 Alpha virt. eigenvalues --    3.37736   3.37742   3.37742   3.37744   3.44612
 Alpha virt. eigenvalues --    3.63779   3.63779   3.88248   3.88426   3.88441
 Alpha virt. eigenvalues --    3.94640   4.06067   4.24335   4.24350   4.53869
 Alpha virt. eigenvalues --    4.53869   4.77334   4.84201   4.84209   5.40323
 Alpha virt. eigenvalues --    5.67135   5.70141   5.70151   5.71785   5.71785
 Alpha virt. eigenvalues --    5.71793   5.80670   5.80681   6.40115   6.40122
 Alpha virt. eigenvalues --    7.51084   8.42225   9.18705   9.18705   9.19516
 Alpha virt. eigenvalues --    9.19516   9.21888   9.21888   9.31357   9.31357
 Alpha virt. eigenvalues --    9.31362   9.31362   9.31365   9.31365   9.31366
 Alpha virt. eigenvalues --    9.42408   9.42408   9.57906   9.59625   9.59631
 Alpha virt. eigenvalues --    9.68973   9.68973   9.70601   9.70607   9.74184
 Alpha virt. eigenvalues --    9.74184   9.79076   9.79076   9.79081   9.79081
 Alpha virt. eigenvalues --    9.79082   9.90160   9.90165  10.03119  10.09161
 Alpha virt. eigenvalues --   10.09166  10.43580  10.57087  11.01110  13.54760
 Alpha virt. eigenvalues --   15.43535
          Condensed to atoms (all electrons):
               1          2          3          4
     1  F   10.000000  -0.000000   0.000000  -0.000000
     2  F   -0.000000   9.764606   0.092655  -0.102129
     3  H    0.000000   0.092655   0.304426   0.092655
     4  F   -0.000000  -0.102129   0.092655   9.764606
 Mulliken charges:
               1
     1  F   -1.000000
     2  F   -0.755132
     3  H    0.510264
     4  F   -0.755132
 Sum of Mulliken charges =  -2.00000
 Mulliken charges with hydrogens summed into heavy atoms:
               1
     1  F   -1.000000
     2  F   -0.244868
     4  F   -0.755132
 Electronic spatial extent (au):  <R**2>=           3285.4375
 Charge=             -2.0000 electrons
 Dipole moment (field-independent basis, Debye):
    X=              0.0000    Y=              0.0000    Z=            -19.7090  Tot=             19.7090
 Quadrupole moment (field-independent basis, Debye-Ang):
   XX=            -19.7392   YY=            -28.8740   ZZ=           -378.8469
   XY=             -0.0000   XZ=             -0.0000   YZ=             -0.0000
 Traceless Quadrupole moment (field-independent basis, Debye-Ang):
   XX=            122.7475   YY=            113.6127   ZZ=           -236.3602
   XY=             -0.0000   XZ=             -0.0000   YZ=             -0.0000
 Octapole moment (field-independent basis, Debye-Ang**2):
  XXX=              0.0000  YYY=              0.0000  ZZZ=          -2072.8040  XYY=              0.0000
  XXY=             -0.0000  XXZ=             -9.4747  XZZ=              0.0000  YZZ=              0.0000
  YYZ=             24.3634  XYZ=              0.0000
 Hexadecapole moment (field-independent basis, Debye-Ang**3):
 XXXX=            -18.2038 YYYY=           -122.6508 ZZZZ=         -22459.7422 XXXY=             -0.0000
 XXXZ=             -0.0000 YYYX=             -0.0000 YYYZ=              0.0000 ZZZX=             -0.0000
 ZZZY=              0.0000 XXYY=            -22.1004 XXZZ=           -614.9008 YYZZ=           -756.2650
 XXYZ=             -0.0000 YYXZ=             -0.0000 ZZXY=             -0.0000
 N-N= 3.501132658335D+01 E-N=-8.005041594694D+02  KE= 2.988723793965D+02
 Symmetry A1   KE= 1.805256502357D+02
 Symmetry A2   KE= 6.156286657668D+00
 Symmetry B1   KE= 1.146084637370D+01
 Symmetry B2   KE= 1.007295961295D+02
 1\1\GINC-HELIOS\SP\RCCSD-FC\Aug-CC-pVTZ\F3H1(2-)\POHL\07-May-2025\0\\#
  CCSD/aug-cc-pVTZ SP\\Single-point energy of X- + Y- at fixed distance
  R\\-2,1\F,0,0.,0.,11.5\F,0,-1.139,0.,0.\H,0,0.,0.,0.\F,0,1.139,0.,0.\
 \Version=EM64L-G16RevB.01\State=1-A1\HF=-298.9826223\MP2=-299.8579908\
 MP3=-299.8345803\MP4D=-299.850451\MP4DQ=-299.8403756\MP4SDQ=-299.85205
 83\CCSD=-299.8459433\RMSD=5.338e-09\PG=C02V [C2(H1F1),SGV(F2)]\\@


 IF IT HAPPENS, IT MUST BE POSSIBLE.

 -- THE UNNAMED LAW FROM PAUL DICKSON'S 
    "THE OFFICIAL RULES"
 Job cpu time:       0 days  0 hours  4 minutes 38.1 seconds.
 Elapsed time:       0 days  0 hours  0 minutes 28.0 seconds.
 File lengths (MBytes):  RWF=    591 Int=      0 D2E=      0 Chk=      3 Scr=      1
 Normal termination of Gaussian 16 at Wed May  7 12:32:00 2025.
