 Entering Gaussian System, Link 0=g16
 Initial command:
 /opt/g16/l1.exe "/home/pohl/scratches/g16/Gau-1290590.inp" -scrdir="/home/pohl/scratches/g16/"
 Entering Link 1 = /opt/g16/l1.exe PID=   1290592.
  
 Copyright (c) 1988-2017, Gaussian, Inc.  All Rights Reserved.
  
 This is part of the Gaussian(R) 16 program.  It is based on
 the Gaussian(R) 09 system (copyright 2009, Gaussian, Inc.),
 the Gaussian(R) 03 system (copyright 2003, Gaussian, Inc.),
 the Gaussian(R) 98 system (copyright 1998, Gaussian, Inc.),
 the Gaussian(R) 94 system (copyright 1995, Gaussian, Inc.),
 the Gaussian 92(TM) system (copyright 1992, Gaussian, Inc.),
 the Gaussian 90(TM) system (copyright 1990, Gaussian, Inc.),
 the Gaussian 88(TM) system (copyright 1988, Gaussian, Inc.),
 the Gaussian 86(TM) system (copyright 1986, Carnegie Mellon
 University), and the Gaussian 82(TM) system (copyright 1983,
 Carnegie Mellon University). Gaussian is a federally registered
 trademark of Gaussian, Inc.
  
 This software contains proprietary and confidential information,
 including trade secrets, belonging to Gaussian, Inc.
  
 This software is provided under written license and may be
 used, copied, transmitted, or stored only in accord with that
 written license.
  
 The following legend is applicable only to US Government
 contracts under FAR:
  
                    RESTRICTED RIGHTS LEGEND
  
 Use, reproduction and disclosure by the US Government is
 subject to restrictions as set forth in subparagraphs (a)
 and (c) of the Commercial Computer Software - Restricted
 Rights clause in FAR 52.227-19.
  
 Gaussian, Inc.
 340 Quinnipiac St., Bldg. 40, Wallingford CT 06492
  
  
 ---------------------------------------------------------------
 Warning -- This program may not be used in any manner that
 competes with the business of Gaussian, Inc. or will provide
 assistance to any competitor of Gaussian, Inc.  The licensee
 of this program is prohibited from giving any competitor of
 Gaussian, Inc. access to this program.  By using this program,
 the user acknowledges that Gaussian, Inc. is engaged in the
 business of creating and licensing software in the field of
 computational chemistry and represents and warrants to the
 licensee that it is not a competitor of Gaussian, Inc. and that
 it will not use this program in any manner prohibited above.
 ---------------------------------------------------------------
  

 Cite this work as:
 Gaussian 16, Revision B.01,
 M. J. Frisch, G. W. Trucks, H. B. Schlegel, G. E. Scuseria, 
 M. A. Robb, J. R. Cheeseman, G. Scalmani, V. Barone, 
 G. A. Petersson, H. Nakatsuji, X. Li, M. Caricato, A. V. Marenich, 
 J. Bloino, B. G. Janesko, R. Gomperts, B. Mennucci, H. P. Hratchian, 
 J. V. Ortiz, A. F. Izmaylov, J. L. Sonnenberg, D. Williams-Young, 
 F. Ding, F. Lipparini, F. Egidi, J. Goings, B. Peng, A. Petrone, 
 T. Henderson, D. Ranasinghe, V. G. Zakrzewski, J. Gao, N. Rega, 
 G. Zheng, W. Liang, M. Hada, M. Ehara, K. Toyota, R. Fukuda, 
 J. Hasegawa, M. Ishida, T. Nakajima, Y. Honda, O. Kitao, H. Nakai, 
 T. Vreven, K. Throssell, J. A. Montgomery, Jr., J. E. Peralta, 
 F. Ogliaro, M. J. Bearpark, J. J. Heyd, E. N. Brothers, K. N. Kudin, 
 V. N. Staroverov, T. A. Keith, R. Kobayashi, J. Normand, 
 K. Raghavachari, A. P. Rendell, J. C. Burant, S. S. Iyengar, 
 J. Tomasi, M. Cossi, J. M. Millam, M. Klene, C. Adamo, R. Cammi, 
 J. W. Ochterski, R. L. Martin, K. Morokuma, O. Farkas, 
 J. B. Foresman, and D. J. Fox, Gaussian, Inc., Wallingford CT, 2016.
 
 ******************************************
 Gaussian 16:  EM64L-G16RevB.01 20-Dec-2017
                 7-May-2025 
 ******************************************
 %mem=30GB
 %nprocshared=10
 Will use up to   10 processors via shared memory.
 ---------------------
 # CCSD/aug-cc-pVTZ SP
 ---------------------
 1/38=1,172=1/1;
 2/12=2,17=6,18=5,40=1/2;
 3/5=16,6=1,7=10,11=9,25=1,30=1/1,2,3;
 4//1;
 5/5=2,38=5/2;
 8/6=4,9=120000,10=1/1,4;
 9/5=7/13;
 6/7=2,8=2,9=2,10=2/1;
 99/5=1,9=1/99;
 --------------------------------------------------
 Single-point energy of X- + Y- at fixed distance R
 --------------------------------------------------
 Symbolic Z-matrix:
 Charge = -2 Multiplicity = 1
 F                     0.        0.        12. 
 F                    -1.139     0.        0. 
 H                     0.        0.        0. 
 F                     1.139     0.        0. 
 
                          Input orientation:                          
 ---------------------------------------------------------------------
 Center     Atomic      Atomic             Coordinates (Angstroms)
 Number     Number       Type             X           Y           Z
 ---------------------------------------------------------------------
      1          9           0        0.000000    0.000000   12.000000
      2          9           0       -1.139000    0.000000    0.000000
      3          1           0        0.000000    0.000000    0.000000
      4          9           0        1.139000    0.000000    0.000000
 ---------------------------------------------------------------------
                    Distance matrix (angstroms):
                    1          2          3          4
     1  F    0.000000
     2  F   12.053934   0.000000
     3  H   12.000000   1.139000   0.000000
     4  F   12.053934   2.278000   1.139000   0.000000
 Stoichiometry    F3H(2-)
 Framework group  C2V[C2(HF),SGV(F2)]
 Deg. of freedom     3
 Full point group                 C2V     NOp   4
 Largest Abelian subgroup         C2V     NOp   4
 Largest concise Abelian subgroup C2      NOp   2
                         Standard orientation:                         
 ---------------------------------------------------------------------
 Center     Atomic      Atomic             Coordinates (Angstroms)
 Number     Number       Type             X           Y           Z
 ---------------------------------------------------------------------
      1          9           0        0.000000   -0.000000    8.142857
      2          9           0        0.000000    1.139000   -3.857143
      3          1           0        0.000000    0.000000   -3.857143
      4          9           0       -0.000000   -1.139000   -3.857143
 ---------------------------------------------------------------------
 Rotational constants (GHZ):          10.2523318           0.2747085           0.2675399
 Standard basis: Aug-CC-pVTZ (5D, 7F)
 There are    74 symmetry adapted cartesian basis functions of A1  symmetry.
 There are    25 symmetry adapted cartesian basis functions of A2  symmetry.
 There are    36 symmetry adapted cartesian basis functions of B1  symmetry.
 There are    55 symmetry adapted cartesian basis functions of B2  symmetry.
 There are    60 symmetry adapted basis functions of A1  symmetry.
 There are    23 symmetry adapted basis functions of A2  symmetry.
 There are    32 symmetry adapted basis functions of B1  symmetry.
 There are    46 symmetry adapted basis functions of B2  symmetry.
   161 basis functions,   243 primitive gaussians,   190 cartesian basis functions
    15 alpha electrons       15 beta electrons
       nuclear repulsion energy        34.6877983580 Hartrees.
 NAtoms=    4 NActive=    4 NUniq=    3 SFac= 1.78D+00 NAtFMM=   60 NAOKFM=F Big=F
 Integral buffers will be    131072 words long.
 Raffenetti 1 integral format.
 Two-electron integral symmetry is turned on.
 One-electron integrals computed using PRISM.
 NBasis=   161 RedAO= T EigKep=  2.93D-04  NBF=    60    23    32    46
 NBsUse=   161 1.00D-06 EigRej= -1.00D+00 NBFU=    60    23    32    46
 ExpMin= 2.53D-02 ExpMax= 1.95D+04 ExpMxC= 6.65D+02 IAcc=3 IRadAn=         5 AccDes= 0.00D+00
 Harris functional with IExCor=  205 and IRadAn=       5 diagonalized for initial guess.
 HarFok:  IExCor=  205 AccDes= 0.00D+00 IRadAn=         5 IDoV= 1 UseB2=F ITyADJ=14
 ICtDFT=  3500011 ScaDFX=  1.000000  1.000000  1.000000  1.000000
 FoFCou: FMM=F IPFlag=           0 FMFlag=      100000 FMFlg1=           0
         NFxFlg=           0 DoJE=T BraDBF=F KetDBF=T FulRan=T
         wScrn=  0.000000 ICntrl=       500 IOpCl=  0 I1Cent=   200000004 NGrid=           0
         NMat0=    1 NMatS0=      1 NMatT0=    0 NMatD0=    1 NMtDS0=    0 NMtDT0=    0
 Petite list used in FoFCou.
 Initial guess orbital symmetries:
       Occupied  (A1) (B2) (A1) (A1) (B2) (A1) (A1) (A1) (B1) (B2)
                 (B2) (A2) (B1) (B2) (A1)
       Virtual   (A1) (B2) (A1) (A1) (B1) (A1) (A1) (B2) (B1) (A1)
                 (B2) (A2) (B2) (A1) (B1) (A1) (A1) (B2) (B1) (A1)
                 (A2) (A1) (B1) (B2) (A1) (B2) (A2) (A1) (B1) (B2)
                 (A2) (A1) (B1) (A1) (A1) (B2) (B1) (A2) (B2) (B2)
                 (A1) (A1) (B1) (B2) (A1) (A1) (B1) (A1) (B2) (A2)
                 (B2) (B2) (A1) (A1) (B1) (A2) (B2) (B2) (A2) (A2)
                 (A1) (B1) (B2) (A1) (A1) (B1) (B1) (A1) (A2) (B2)
                 (A1) (B1) (B2) (A2) (B1) (B2) (A1) (A2) (B2) (A1)
                 (B1) (A1) (B2) (A2) (B2) (A1) (B2) (B1) (A1) (B1)
                 (A1) (A1) (B1) (A1) (A1) (A1) (B1) (B2) (B1) (A1)
                 (B2) (A2) (B2) (A2) (B2) (B2) (A1) (B1) (A1) (A2)
                 (B2) (A1) (B1) (B2) (A2) (B1) (B2) (A1) (A2) (B2)
                 (B1) (A1) (B2) (A2) (A1) (B1) (B2) (A1) (A2) (B2)
                 (B2) (A2) (A1) (B1) (B1) (A1) (B1) (A1) (A1) (B2)
                 (A2) (A1) (B2) (A1) (B2) (A1)
 The electronic state of the initial guess is 1-A1.
 Keep R1 ints in memory in symmetry-blocked form, NReq=106592091.
 Requested convergence on RMS density matrix=1.00D-08 within 128 cycles.
 Requested convergence on MAX density matrix=1.00D-06.
 Requested convergence on             energy=1.00D-06.
 No special actions if energy rises.
 SCF Done:  E(RHF) =  -298.984494362     A.U. after   10 cycles
            NFock= 10  Conv=0.53D-08     -V/T= 2.0004
 ExpMin= 2.53D-02 ExpMax= 1.95D+04 ExpMxC= 6.65D+02 IAcc=3 IRadAn=         5 AccDes= 0.00D+00
 HarFok:  IExCor=  205 AccDes= 0.00D+00 IRadAn=         5 IDoV=-2 UseB2=F ITyADJ=14
 ICtDFT= 12500011 ScaDFX=  1.000000  1.000000  1.000000  1.000000
 Range of M.O.s used for correlation:     4   161
 NBasis=   161 NAE=    15 NBE=    15 NFC=     3 NFV=     0
 NROrb=    158 NOA=    12 NOB=    12 NVA=   146 NVB=   146

 **** Warning!!: The largest alpha MO coefficient is  0.21664347D+02

 Semi-Direct transformation.
 ModeAB=           4 MOrb=            12 LenV=    4025788526
 LASXX=      5679395 LTotXX=     5679395 LenRXX=    11479218
 LTotAB=     5799823 MaxLAS=    13209432 LenRXY=           0
 NonZer=    17158613 LenScr=    26512384 LnRSAI=    13209432
 LnScr1=    20570112 LExtra=           0 Total=     71771146
 MaxDsk=          -1 SrtSym=           T ITran=            4
 JobTyp=0 Pass  1:  I=   1 to  12.
 (rs|ai) integrals will be sorted in core.
 Spin components of T(2) and E(2):
     alpha-alpha T2 =       0.2526490720D-01 E2=     -0.1154941417D+00
     alpha-beta  T2 =       0.1294490621D+00 E2=     -0.6443799753D+00
     beta-beta   T2 =       0.2526490720D-01 E2=     -0.1154941417D+00
 ANorm=    0.1086268326D+01
 E2 =    -0.8753682587D+00 EUMP2 =    -0.29985986262102D+03
 Keep R2 and R3 ints in memory in symmetry-blocked form, NReq=106598451.
 CIDS: In Core Option IDoMem=           1.
 Iterations=  50 Convergence= 0.100D-06
 Produce multiple copies of IABC intergrals
 Iteration Nr.   1
 **********************
 DD1Dir will call FoFMem   1 times, MxPair=       156
 NAB=    78 NAA=     0 NBB=     0.
 MP4(R+Q)=  0.10075409D-01
 E3=        0.23410179D-01        EUMP3=      -0.29983645244D+03
 E4(DQ)=   -0.57951633D-02        UMP4(DQ)=   -0.29984224760D+03
 E4(SDQ)=  -0.17477638D-01        UMP4(SDQ)=  -0.29985393008D+03
 DE(Corr)= -0.84100524     E(Corr)=     -299.82549961    
 NORM(A)=   0.10803557D+01
 Iteration Nr.   2
 **********************
 DD1Dir will call FoFMem   1 times, MxPair=       156
 NAB=    78 NAA=     0 NBB=     0.
 DE(Corr)= -0.86412019     E(CORR)=     -299.84861455     Delta=-2.31D-02
 NORM(A)=   0.10859326D+01
 Iteration Nr.   3
 **********************
 DD1Dir will call FoFMem   1 times, MxPair=       156
 NAB=    78 NAA=     0 NBB=     0.
 DE(Corr)= -0.86122771     E(CORR)=     -299.84572207     Delta= 2.89D-03
 NORM(A)=   0.10881122D+01
 Iteration Nr.   4
 **********************
 DD1Dir will call FoFMem   1 times, MxPair=       156
 NAB=    78 NAA=     0 NBB=     0.
 DE(Corr)= -0.86312209     E(CORR)=     -299.84761645     Delta=-1.89D-03
 NORM(A)=   0.10889545D+01
 Iteration Nr.   5
 **********************
 DD1Dir will call FoFMem   1 times, MxPair=       156
 NAB=    78 NAA=     0 NBB=     0.
 DE(Corr)= -0.86331471     E(CORR)=     -299.84780907     Delta=-1.93D-04
 NORM(A)=   0.10891391D+01
 Iteration Nr.   6
 **********************
 DD1Dir will call FoFMem   1 times, MxPair=       156
 NAB=    78 NAA=     0 NBB=     0.
 DE(Corr)= -0.86332271     E(CORR)=     -299.84781707     Delta=-8.00D-06
 NORM(A)=   0.10891931D+01
 Iteration Nr.   7
 **********************
 DD1Dir will call FoFMem   1 times, MxPair=       156
 NAB=    78 NAA=     0 NBB=     0.
 DE(Corr)= -0.86332063     E(CORR)=     -299.84781499     Delta= 2.08D-06
 NORM(A)=   0.10891976D+01
 Iteration Nr.   8
 **********************
 DD1Dir will call FoFMem   1 times, MxPair=       156
 NAB=    78 NAA=     0 NBB=     0.
 DE(Corr)= -0.86332204     E(CORR)=     -299.84781640     Delta=-1.41D-06
 NORM(A)=   0.10892000D+01
 Iteration Nr.   9
 **********************
 DD1Dir will call FoFMem   1 times, MxPair=       156
 NAB=    78 NAA=     0 NBB=     0.
 DE(Corr)= -0.86332040     E(CORR)=     -299.84781476     Delta= 1.64D-06
 NORM(A)=   0.10892007D+01
 Iteration Nr.  10
 **********************
 DD1Dir will call FoFMem   1 times, MxPair=       156
 NAB=    78 NAA=     0 NBB=     0.
 DE(Corr)= -0.86332111     E(CORR)=     -299.84781547     Delta=-7.05D-07
 NORM(A)=   0.10892007D+01
 Iteration Nr.  11
 **********************
 DD1Dir will call FoFMem   1 times, MxPair=       156
 NAB=    78 NAA=     0 NBB=     0.
 DE(Corr)= -0.86332086     E(CORR)=     -299.84781522     Delta= 2.51D-07
 NORM(A)=   0.10892008D+01
 Iteration Nr.  12
 **********************
 DD1Dir will call FoFMem   1 times, MxPair=       156
 NAB=    78 NAA=     0 NBB=     0.
 DE(Corr)= -0.86332093     E(CORR)=     -299.84781530     Delta=-7.72D-08
 NORM(A)=   0.10892008D+01
 Wavefunction amplitudes converged. E(Corr)=     -299.84781530    
 Largest amplitude= 3.68D-02
 Discarding MO integrals.

 **********************************************************************

            Population analysis using the SCF Density.

 **********************************************************************

 Orbital symmetries:
       Occupied  (B2) (A1) (A1) (A1) (B2) (A1) (A1) (B1) (A1) (A2)
                 (B2) (B2) (A1) (B2) (B1)
       Virtual   (A1) (B2) (B1) (A1) (A1) (A2) (B2) (B1) (B2) (A1)
                 (A1) (A1) (B2) (B1) (A1) (A1) (B2) (A1) (B1) (A1)
                 (A2) (B2) (B1) (A1) (A1) (A2) (B1) (B2) (A1) (A1)
                 (A2) (B2) (B1) (A1) (A2) (B2) (B2) (B1) (A1) (A1)
                 (B1) (B2) (A1) (B2) (A1) (B1) (A1) (A1) (A2) (B2)
                 (B2) (B2) (A1) (B1) (A1) (A2) (B2) (A2) (B2) (B1)
                 (A1) (A2) (B2) (B1) (A1) (A1) (A2) (B1) (B2) (A1)
                 (A2) (B2) (B1) (B2) (A1) (A2) (B1) (B2) (A1) (A1)
                 (B1) (A1) (B2) (A2) (B2) (A1) (B2) (B1) (A1) (B1)
                 (A1) (A1) (B1) (A1) (A1) (B2) (B1) (A1) (B1) (B2)
                 (A1) (A2) (B2) (A2) (B2) (B2) (A1) (B1) (A1) (A2)
                 (B2) (A2) (B2) (B1) (B2) (A1) (A2) (B1) (B2) (A1)
                 (B1) (A1) (B2) (A2) (B2) (A2) (B2) (B1) (A1) (B1)
                 (A1) (A1) (A2) (B1) (B2) (A1) (B1) (A1) (A1) (A2)
                 (B2) (A1) (B2) (A1) (B2) (A1)
 The electronic state is 1-A1.
 Alpha  occ. eigenvalues --  -25.91355 -25.91353 -25.78993  -1.21592  -1.16864
 Alpha  occ. eigenvalues --   -1.03226  -0.42506  -0.28724  -0.28720  -0.26073
 Alpha  occ. eigenvalues --   -0.26071  -0.23985  -0.13719  -0.13719  -0.13719
 Alpha virt. eigenvalues --    0.23939   0.34826   0.39903   0.39955   0.40290
 Alpha virt. eigenvalues --    0.47742   0.47840   0.48597   0.48598   0.48669
 Alpha virt. eigenvalues --    0.52140   0.52967   0.58999   0.66486   0.66555
 Alpha virt. eigenvalues --    0.76384   0.94823   0.96311   1.04337   1.04338
 Alpha virt. eigenvalues --    1.24359   1.24360   1.25268   1.25302   1.27209
 Alpha virt. eigenvalues --    1.27209   1.27232   1.27232   1.27240   1.31767
 Alpha virt. eigenvalues --    1.35743   1.35773   1.47019   1.47049   1.50034
 Alpha virt. eigenvalues --    1.50062   1.50323   1.51554   1.51555   1.52176
 Alpha virt. eigenvalues --    1.56968   1.56968   1.56995   1.61987   1.73661
 Alpha virt. eigenvalues --    2.04648   2.04675   2.09490   2.29789   2.29822
 Alpha virt. eigenvalues --    2.39791   2.89140   2.98088   3.14804   3.14804
 Alpha virt. eigenvalues --    3.16807   3.16818   3.20207   3.20207   3.25796
 Alpha virt. eigenvalues --    3.25796   3.27147   3.27147   3.30765   3.30777
 Alpha virt. eigenvalues --    3.32704   3.32704   3.32713   3.32713   3.32716
 Alpha virt. eigenvalues --    3.35279   3.35279   3.37540   3.37540   3.37549
 Alpha virt. eigenvalues --    3.37549   3.37554   3.37554   3.37556   3.44424
 Alpha virt. eigenvalues --    3.63591   3.63591   3.88063   3.88240   3.88253
 Alpha virt. eigenvalues --    3.94453   4.05879   4.24148   4.24161   4.53680
 Alpha virt. eigenvalues --    4.53680   4.77146   4.84013   4.84020   5.40135
 Alpha virt. eigenvalues --    5.66947   5.69953   5.69962   5.71599   5.71599
 Alpha virt. eigenvalues --    5.71606   5.80482   5.80492   6.39927   6.39933
 Alpha virt. eigenvalues --    7.50896   8.42037   9.18516   9.18516   9.19328
 Alpha virt. eigenvalues --    9.19328   9.21700   9.21700   9.31171   9.31171
 Alpha virt. eigenvalues --    9.31175   9.31175   9.31178   9.31178   9.31179
 Alpha virt. eigenvalues --    9.42220   9.42220   9.57718   9.59437   9.59443
 Alpha virt. eigenvalues --    9.68785   9.68785   9.70414   9.70419   9.73997
 Alpha virt. eigenvalues --    9.73997   9.78889   9.78889   9.78894   9.78894
 Alpha virt. eigenvalues --    9.78895   9.89972   9.89977  10.02932  10.08973
 Alpha virt. eigenvalues --   10.08978  10.43393  10.56899  11.00923  13.54572
 Alpha virt. eigenvalues --   15.43347
          Condensed to atoms (all electrons):
               1          2          3          4
     1  F   10.000000  -0.000000   0.000000  -0.000000
     2  F   -0.000000   9.764534   0.092605  -0.102029
     3  H    0.000000   0.092605   0.304571   0.092605
     4  F   -0.000000  -0.102029   0.092605   9.764534
 Mulliken charges:
               1
     1  F   -1.000000
     2  F   -0.755110
     3  H    0.510220
     4  F   -0.755110
 Sum of Mulliken charges =  -2.00000
 Mulliken charges with hydrogens summed into heavy atoms:
               1
     1  F   -1.000000
     2  F   -0.244890
     4  F   -0.755110
 Electronic spatial extent (au):  <R**2>=           3565.3186
 Charge=             -2.0000 electrons
 Dipole moment (field-independent basis, Debye):
    X=              0.0000    Y=              0.0000    Z=            -20.5682  Tot=             20.5682
 Quadrupole moment (field-independent basis, Debye-Ang):
   XX=            -19.7388   YY=            -28.8721   ZZ=           -410.6260
   XY=             -0.0000   XZ=             -0.0000   YZ=              0.0000
 Traceless Quadrupole moment (field-independent basis, Debye-Ang):
   XX=            133.3402   YY=            124.2069   ZZ=           -257.5470
   XY=             -0.0000   XZ=             -0.0000   YZ=              0.0000
 Octapole moment (field-independent basis, Debye-Ang**2):
  XXX=              0.0000  YYY=              0.0000  ZZZ=          -2351.8675  XYY=              0.0000
  XXY=              0.0000  XXZ=             -9.8870  XZZ=              0.0000  YZZ=             -0.0000
  YYZ=             25.4077  XYZ=              0.0000
 Hexadecapole moment (field-independent basis, Debye-Ang**3):
 XXXX=            -18.2020 YYYY=           -122.6389 ZZZZ=         -26259.6738 XXXY=             -0.0000
 XXXZ=             -0.0000 YYYX=             -0.0000 YYYZ=              0.0000 ZZZX=             -0.0000
 ZZZY=              0.0000 XXYY=            -22.0987 XXZZ=           -668.9134 YYZZ=           -821.3246
 XXYZ=             -0.0000 YYXZ=             -0.0000 ZZXY=             -0.0000
 N-N= 3.468779835804D+01 E-N=-7.998045952057D+02  KE= 2.988724052568D+02
 Symmetry A1   KE= 1.805253060071D+02
 Symmetry A2   KE= 6.156362460685D+00
 Symmetry B1   KE= 1.146101242269D+01
 Symmetry B2   KE= 1.007297243663D+02
 1\1\GINC-HELIOS\SP\RCCSD-FC\Aug-CC-pVTZ\F3H1(2-)\POHL\07-May-2025\0\\#
  CCSD/aug-cc-pVTZ SP\\Single-point energy of X- + Y- at fixed distance
  R\\-2,1\F,0,0.,0.,12.\F,0,-1.139,0.,0.\H,0,0.,0.,0.\F,0,1.139,0.,0.\\
 Version=EM64L-G16RevB.01\State=1-A1\HF=-298.9844944\MP2=-299.8598626\M
 P3=-299.8364524\MP4D=-299.852323\MP4DQ=-299.8422476\MP4SDQ=-299.853930
 1\CCSD=-299.8478153\RMSD=5.308e-09\PG=C02V [C2(H1F1),SGV(F2)]\\@


 TIME IS NATURE'S WAY OF MAKING SURE EVERYTHING
 DOESN'T HAPPEN AT ONCE.
                     - WOODY ALLEN
 Job cpu time:       0 days  0 hours  4 minutes 41.4 seconds.
 Elapsed time:       0 days  0 hours  0 minutes 28.3 seconds.
 File lengths (MBytes):  RWF=    586 Int=      0 D2E=      0 Chk=      3 Scr=      1
 Normal termination of Gaussian 16 at Wed May  7 12:32:28 2025.
