 Entering Gaussian System, Link 0=g16
 Initial command:
 /opt/g16/l1.exe "/home/pohl/scratches/g16/Gau-1290739.inp" -scrdir="/home/pohl/scratches/g16/"
 Entering Link 1 = /opt/g16/l1.exe PID=   1290741.
  
 Copyright (c) 1988-2017, Gaussian, Inc.  All Rights Reserved.
  
 This is part of the Gaussian(R) 16 program.  It is based on
 the Gaussian(R) 09 system (copyright 2009, Gaussian, Inc.),
 the Gaussian(R) 03 system (copyright 2003, Gaussian, Inc.),
 the Gaussian(R) 98 system (copyright 1998, Gaussian, Inc.),
 the Gaussian(R) 94 system (copyright 1995, Gaussian, Inc.),
 the Gaussian 92(TM) system (copyright 1992, Gaussian, Inc.),
 the Gaussian 90(TM) system (copyright 1990, Gaussian, Inc.),
 the Gaussian 88(TM) system (copyright 1988, Gaussian, Inc.),
 the Gaussian 86(TM) system (copyright 1986, Carnegie Mellon
 University), and the Gaussian 82(TM) system (copyright 1983,
 Carnegie Mellon University). Gaussian is a federally registered
 trademark of Gaussian, Inc.
  
 This software contains proprietary and confidential information,
 including trade secrets, belonging to Gaussian, Inc.
  
 This software is provided under written license and may be
 used, copied, transmitted, or stored only in accord with that
 written license.
  
 The following legend is applicable only to US Government
 contracts under FAR:
  
                    RESTRICTED RIGHTS LEGEND
  
 Use, reproduction and disclosure by the US Government is
 subject to restrictions as set forth in subparagraphs (a)
 and (c) of the Commercial Computer Software - Restricted
 Rights clause in FAR 52.227-19.
  
 Gaussian, Inc.
 340 Quinnipiac St., Bldg. 40, Wallingford CT 06492
  
  
 ---------------------------------------------------------------
 Warning -- This program may not be used in any manner that
 competes with the business of Gaussian, Inc. or will provide
 assistance to any competitor of Gaussian, Inc.  The licensee
 of this program is prohibited from giving any competitor of
 Gaussian, Inc. access to this program.  By using this program,
 the user acknowledges that Gaussian, Inc. is engaged in the
 business of creating and licensing software in the field of
 computational chemistry and represents and warrants to the
 licensee that it is not a competitor of Gaussian, Inc. and that
 it will not use this program in any manner prohibited above.
 ---------------------------------------------------------------
  

 Cite this work as:
 Gaussian 16, Revision B.01,
 M. J. Frisch, G. W. Trucks, H. B. Schlegel, G. E. Scuseria, 
 M. A. Robb, J. R. Cheeseman, G. Scalmani, V. Barone, 
 G. A. Petersson, H. Nakatsuji, X. Li, M. Caricato, A. V. Marenich, 
 J. Bloino, B. G. Janesko, R. Gomperts, B. Mennucci, H. P. Hratchian, 
 J. V. Ortiz, A. F. Izmaylov, J. L. Sonnenberg, D. Williams-Young, 
 F. Ding, F. Lipparini, F. Egidi, J. Goings, B. Peng, A. Petrone, 
 T. Henderson, D. Ranasinghe, V. G. Zakrzewski, J. Gao, N. Rega, 
 G. Zheng, W. Liang, M. Hada, M. Ehara, K. Toyota, R. Fukuda, 
 J. Hasegawa, M. Ishida, T. Nakajima, Y. Honda, O. Kitao, H. Nakai, 
 T. Vreven, K. Throssell, J. A. Montgomery, Jr., J. E. Peralta, 
 F. Ogliaro, M. J. Bearpark, J. J. Heyd, E. N. Brothers, K. N. Kudin, 
 V. N. Staroverov, T. A. Keith, R. Kobayashi, J. Normand, 
 K. Raghavachari, A. P. Rendell, J. C. Burant, S. S. Iyengar, 
 J. Tomasi, M. Cossi, J. M. Millam, M. Klene, C. Adamo, R. Cammi, 
 J. W. Ochterski, R. L. Martin, K. Morokuma, O. Farkas, 
 J. B. Foresman, and D. J. Fox, Gaussian, Inc., Wallingford CT, 2016.
 
 ******************************************
 Gaussian 16:  EM64L-G16RevB.01 20-Dec-2017
                 7-May-2025 
 ******************************************
 %mem=30GB
 %nprocshared=10
 Will use up to   10 processors via shared memory.
 ---------------------
 # CCSD/aug-cc-pVTZ SP
 ---------------------
 1/38=1,172=1/1;
 2/12=2,17=6,18=5,40=1/2;
 3/5=16,6=1,7=10,11=9,25=1,30=1/1,2,3;
 4//1;
 5/5=2,38=5/2;
 8/6=4,9=120000,10=1/1,4;
 9/5=7/13;
 6/7=2,8=2,9=2,10=2/1;
 99/5=1,9=1/99;
 --------------------------------------------------
 Single-point energy of X- + Y- at fixed distance R
 --------------------------------------------------
 Symbolic Z-matrix:
 Charge = -2 Multiplicity = 1
 F                     0.        0.        12.5 
 F                    -1.139     0.        0. 
 H                     0.        0.        0. 
 F                     1.139     0.        0. 
 
                          Input orientation:                          
 ---------------------------------------------------------------------
 Center     Atomic      Atomic             Coordinates (Angstroms)
 Number     Number       Type             X           Y           Z
 ---------------------------------------------------------------------
      1          9           0        0.000000    0.000000   12.500000
      2          9           0       -1.139000    0.000000    0.000000
      3          1           0        0.000000    0.000000    0.000000
      4          9           0        1.139000    0.000000    0.000000
 ---------------------------------------------------------------------
                    Distance matrix (angstroms):
                    1          2          3          4
     1  F    0.000000
     2  F   12.551786   0.000000
     3  H   12.500000   1.139000   0.000000
     4  F   12.551786   2.278000   1.139000   0.000000
 Stoichiometry    F3H(2-)
 Framework group  C2V[C2(HF),SGV(F2)]
 Deg. of freedom     3
 Full point group                 C2V     NOp   4
 Largest Abelian subgroup         C2V     NOp   4
 Largest concise Abelian subgroup C2      NOp   2
                         Standard orientation:                         
 ---------------------------------------------------------------------
 Center     Atomic      Atomic             Coordinates (Angstroms)
 Number     Number       Type             X           Y           Z
 ---------------------------------------------------------------------
      1          9           0        0.000000    0.000000    8.482143
      2          9           0        0.000000    1.139000   -4.017857
      3          1           0        0.000000    0.000000   -4.017857
      4          9           0       -0.000000   -1.139000   -4.017857
 ---------------------------------------------------------------------
 Rotational constants (GHZ):          10.2523318           0.2531714           0.2470702
 Standard basis: Aug-CC-pVTZ (5D, 7F)
 There are    74 symmetry adapted cartesian basis functions of A1  symmetry.
 There are    25 symmetry adapted cartesian basis functions of A2  symmetry.
 There are    36 symmetry adapted cartesian basis functions of B1  symmetry.
 There are    55 symmetry adapted cartesian basis functions of B2  symmetry.
 There are    60 symmetry adapted basis functions of A1  symmetry.
 There are    23 symmetry adapted basis functions of A2  symmetry.
 There are    32 symmetry adapted basis functions of B1  symmetry.
 There are    46 symmetry adapted basis functions of B2  symmetry.
   161 basis functions,   243 primitive gaussians,   190 cartesian basis functions
    15 alpha electrons       15 beta electrons
       nuclear repulsion energy        34.3898368328 Hartrees.
 NAtoms=    4 NActive=    4 NUniq=    3 SFac= 1.78D+00 NAtFMM=   60 NAOKFM=F Big=F
 Integral buffers will be    131072 words long.
 Raffenetti 1 integral format.
 Two-electron integral symmetry is turned on.
 One-electron integrals computed using PRISM.
 NBasis=   161 RedAO= T EigKep=  2.93D-04  NBF=    60    23    32    46
 NBsUse=   161 1.00D-06 EigRej= -1.00D+00 NBFU=    60    23    32    46
 ExpMin= 2.53D-02 ExpMax= 1.95D+04 ExpMxC= 6.65D+02 IAcc=3 IRadAn=         5 AccDes= 0.00D+00
 Harris functional with IExCor=  205 and IRadAn=       5 diagonalized for initial guess.
 HarFok:  IExCor=  205 AccDes= 0.00D+00 IRadAn=         5 IDoV= 1 UseB2=F ITyADJ=14
 ICtDFT=  3500011 ScaDFX=  1.000000  1.000000  1.000000  1.000000
 FoFCou: FMM=F IPFlag=           0 FMFlag=      100000 FMFlg1=           0
         NFxFlg=           0 DoJE=T BraDBF=F KetDBF=T FulRan=T
         wScrn=  0.000000 ICntrl=       500 IOpCl=  0 I1Cent=   200000004 NGrid=           0
         NMat0=    1 NMatS0=      1 NMatT0=    0 NMatD0=    1 NMtDS0=    0 NMtDT0=    0
 Petite list used in FoFCou.
 Initial guess orbital symmetries:
       Occupied  (A1) (B2) (A1) (A1) (B2) (A1) (A1) (B1) (A1) (B2)
                 (A2) (B2) (B1) (A1) (B2)
       Virtual   (A1) (B2) (A1) (B1) (A1) (A1) (B2) (B1) (A1) (A1)
                 (A2) (B2) (B2) (A1) (B1) (A1) (A1) (B2) (B1) (A1)
                 (B1) (A1) (B2) (A2) (A1) (B2) (A2) (A1) (B1) (A2)
                 (B2) (A1) (A1) (B1) (B2) (B1) (A1) (A2) (B2) (B2)
                 (A1) (A1) (B1) (B2) (A1) (A1) (A1) (B1) (B2) (A2)
                 (B2) (B2) (A1) (A1) (B1) (A2) (B2) (B2) (A2) (B1)
                 (B2) (A1) (A2) (A1) (A1) (B1) (B1) (A1) (A2) (B2)
                 (A1) (A1) (B1) (B2) (A2) (B1) (B2) (A2) (B2) (A1)
                 (B1) (A1) (B2) (A2) (B2) (A1) (B2) (A1) (B1) (B1)
                 (A1) (A1) (A1) (B1) (A1) (B2) (B1) (A1) (B1) (A1)
                 (B2) (A2) (B2) (A2) (B2) (B2) (A1) (A1) (B1) (A2)
                 (B2) (A1) (A1) (B1) (B2) (A2) (B1) (B2) (A2) (B2)
                 (B1) (A1) (B2) (B1) (B2) (A1) (A2) (A1) (A2) (B2)
                 (B2) (A2) (A1) (B1) (A1) (B1) (B1) (A1) (A1) (A2)
                 (B2) (A1) (B2) (A1) (B2) (A1)
 The electronic state of the initial guess is 1-A1.
 Keep R1 ints in memory in symmetry-blocked form, NReq=106592091.
 Requested convergence on RMS density matrix=1.00D-08 within 128 cycles.
 Requested convergence on MAX density matrix=1.00D-06.
 Requested convergence on             energy=1.00D-06.
 No special actions if energy rises.
 SCF Done:  E(RHF) =  -298.986220156     A.U. after   10 cycles
            NFock= 10  Conv=0.53D-08     -V/T= 2.0004
 ExpMin= 2.53D-02 ExpMax= 1.95D+04 ExpMxC= 6.65D+02 IAcc=3 IRadAn=         5 AccDes= 0.00D+00
 HarFok:  IExCor=  205 AccDes= 0.00D+00 IRadAn=         5 IDoV=-2 UseB2=F ITyADJ=14
 ICtDFT= 12500011 ScaDFX=  1.000000  1.000000  1.000000  1.000000
 Range of M.O.s used for correlation:     4   161
 NBasis=   161 NAE=    15 NBE=    15 NFC=     3 NFV=     0
 NROrb=    158 NOA=    12 NOB=    12 NVA=   146 NVB=   146

 **** Warning!!: The largest alpha MO coefficient is  0.21666567D+02

 Semi-Direct transformation.
 ModeAB=           4 MOrb=            12 LenV=    4025788924
 LASXX=      5679395 LTotXX=     5679395 LenRXX=    11479218
 LTotAB=     5799823 MaxLAS=    13107048 LenRXY=           0
 NonZer=    17158613 LenScr=    26512384 LnRSAI=    13107048
 LnScr1=    20433920 LExtra=           0 Total=     71532570
 MaxDsk=          -1 SrtSym=           T ITran=            4
 JobTyp=0 Pass  1:  I=   1 to  12.
 (rs|ai) integrals will be sorted in core.
 Spin components of T(2) and E(2):
     alpha-alpha T2 =       0.2526483319D-01 E2=     -0.1154941153D+00
     alpha-beta  T2 =       0.1294487079D+00 E2=     -0.6443798774D+00
     beta-beta   T2 =       0.2526483319D-01 E2=     -0.1154941153D+00
 ANorm=    0.1086268095D+01
 E2 =    -0.8753681079D+00 EUMP2 =    -0.29986158826356D+03
 Keep R2 and R3 ints in memory in symmetry-blocked form, NReq=106598451.
 CIDS: In Core Option IDoMem=           1.
 Iterations=  50 Convergence= 0.100D-06
 Produce multiple copies of IABC intergrals
 Iteration Nr.   1
 **********************
 DD1Dir will call FoFMem   1 times, MxPair=       156
 NAB=    78 NAA=     0 NBB=     0.
 MP4(R+Q)=  0.10075469D-01
 E3=        0.23409895D-01        EUMP3=      -0.29983817837D+03
 E4(DQ)=   -0.57950148D-02        UMP4(DQ)=   -0.29984397338D+03
 E4(SDQ)=  -0.17477321D-01        UMP4(SDQ)=  -0.29985565569D+03
 DE(Corr)= -0.84100535     E(Corr)=     -299.82722551    
 NORM(A)=   0.10803554D+01
 Iteration Nr.   2
 **********************
 DD1Dir will call FoFMem   1 times, MxPair=       156
 NAB=    78 NAA=     0 NBB=     0.
 DE(Corr)= -0.86412010     E(CORR)=     -299.85034025     Delta=-2.31D-02
 NORM(A)=   0.10859323D+01
 Iteration Nr.   3
 **********************
 DD1Dir will call FoFMem   1 times, MxPair=       156
 NAB=    78 NAA=     0 NBB=     0.
 DE(Corr)= -0.86122774     E(CORR)=     -299.84744790     Delta= 2.89D-03
 NORM(A)=   0.10881117D+01
 Iteration Nr.   4
 **********************
 DD1Dir will call FoFMem   1 times, MxPair=       156
 NAB=    78 NAA=     0 NBB=     0.
 DE(Corr)= -0.86312206     E(CORR)=     -299.84934221     Delta=-1.89D-03
 NORM(A)=   0.10889539D+01
 Iteration Nr.   5
 **********************
 DD1Dir will call FoFMem   1 times, MxPair=       156
 NAB=    78 NAA=     0 NBB=     0.
 DE(Corr)= -0.86331467     E(CORR)=     -299.84953482     Delta=-1.93D-04
 NORM(A)=   0.10891385D+01
 Iteration Nr.   6
 **********************
 DD1Dir will call FoFMem   1 times, MxPair=       156
 NAB=    78 NAA=     0 NBB=     0.
 DE(Corr)= -0.86332267     E(CORR)=     -299.84954283     Delta=-8.00D-06
 NORM(A)=   0.10891925D+01
 Iteration Nr.   7
 **********************
 DD1Dir will call FoFMem   1 times, MxPair=       156
 NAB=    78 NAA=     0 NBB=     0.
 DE(Corr)= -0.86332059     E(CORR)=     -299.84954075     Delta= 2.08D-06
 NORM(A)=   0.10891970D+01
 Iteration Nr.   8
 **********************
 DD1Dir will call FoFMem   1 times, MxPair=       156
 NAB=    78 NAA=     0 NBB=     0.
 DE(Corr)= -0.86332200     E(CORR)=     -299.84954215     Delta=-1.41D-06
 NORM(A)=   0.10891994D+01
 Iteration Nr.   9
 **********************
 DD1Dir will call FoFMem   1 times, MxPair=       156
 NAB=    78 NAA=     0 NBB=     0.
 DE(Corr)= -0.86332036     E(CORR)=     -299.84954052     Delta= 1.63D-06
 NORM(A)=   0.10892001D+01
 Iteration Nr.  10
 **********************
 DD1Dir will call FoFMem   1 times, MxPair=       156
 NAB=    78 NAA=     0 NBB=     0.
 DE(Corr)= -0.86332107     E(CORR)=     -299.84954122     Delta=-7.03D-07
 NORM(A)=   0.10892001D+01
 Iteration Nr.  11
 **********************
 DD1Dir will call FoFMem   1 times, MxPair=       156
 NAB=    78 NAA=     0 NBB=     0.
 DE(Corr)= -0.86332081     E(CORR)=     -299.84954097     Delta= 2.52D-07
 NORM(A)=   0.10892002D+01
 Iteration Nr.  12
 **********************
 DD1Dir will call FoFMem   1 times, MxPair=       156
 NAB=    78 NAA=     0 NBB=     0.
 DE(Corr)= -0.86332089     E(CORR)=     -299.84954105     Delta=-7.97D-08
 NORM(A)=   0.10892002D+01
 Wavefunction amplitudes converged. E(Corr)=     -299.84954105    
 Largest amplitude= 3.68D-02
 Discarding MO integrals.

 **********************************************************************

            Population analysis using the SCF Density.

 **********************************************************************

 Orbital symmetries:
       Occupied  (B2) (A1) (A1) (A1) (B2) (A1) (A1) (B1) (A1) (A2)
                 (B2) (B2) (A1) (B2) (B1)
       Virtual   (A1) (B2) (B1) (A1) (A1) (A2) (B2) (B1) (B2) (A1)
                 (A1) (A1) (B2) (B1) (A1) (A1) (B2) (A1) (B1) (A1)
                 (A2) (B2) (B1) (A1) (A1) (A2) (B1) (B2) (A1) (A1)
                 (A2) (B2) (B1) (A1) (A2) (B2) (B2) (B1) (A1) (A1)
                 (B1) (B2) (A1) (B2) (A1) (B1) (A1) (A1) (A2) (B2)
                 (B2) (B2) (A1) (B1) (A1) (A2) (B2) (A2) (B2) (B1)
                 (A1) (A2) (B2) (B1) (A1) (A1) (A2) (B1) (B2) (A1)
                 (A2) (B2) (B1) (B2) (A1) (A2) (B1) (B2) (A1) (A1)
                 (B1) (A1) (B2) (A2) (B2) (A1) (B2) (B1) (A1) (B1)
                 (A1) (A1) (B1) (A1) (A1) (B2) (B1) (A1) (B1) (B2)
                 (A1) (A2) (B2) (A2) (B2) (B2) (A1) (B1) (A1) (A2)
                 (B2) (A2) (B2) (B1) (B2) (A1) (A2) (B1) (B2) (A1)
                 (B1) (A1) (B2) (A2) (B2) (A2) (B2) (B1) (A1) (B1)
                 (A1) (A1) (A2) (B1) (B2) (A1) (B1) (A1) (A1) (A2)
                 (B2) (A1) (B2) (A1) (B2) (A1)
 The electronic state is 1-A1.
 Alpha  occ. eigenvalues --  -25.91528 -25.91526 -25.79165  -1.21766  -1.17037
 Alpha  occ. eigenvalues --   -1.03398  -0.42680  -0.28897  -0.28894  -0.26246
 Alpha  occ. eigenvalues --   -0.26245  -0.24158  -0.13891  -0.13891  -0.13891
 Alpha virt. eigenvalues --    0.23766   0.34667   0.39736   0.39786   0.40110
 Alpha virt. eigenvalues --    0.47575   0.47662   0.48428   0.48429   0.48493
 Alpha virt. eigenvalues --    0.51967   0.52791   0.58829   0.66315   0.66376
 Alpha virt. eigenvalues --    0.76211   0.94652   0.96137   1.04161   1.04162
 Alpha virt. eigenvalues --    1.24185   1.24186   1.25097   1.25128   1.27039
 Alpha virt. eigenvalues --    1.27039   1.27058   1.27059   1.27066   1.31594
 Alpha virt. eigenvalues --    1.35574   1.35600   1.46847   1.46873   1.49861
 Alpha virt. eigenvalues --    1.49886   1.50152   1.51380   1.51380   1.52005
 Alpha virt. eigenvalues --    1.56796   1.56796   1.56821   1.61815   1.73487
 Alpha virt. eigenvalues --    2.04476   2.04500   2.09318   2.29617   2.29647
 Alpha virt. eigenvalues --    2.39618   2.88967   2.97914   3.14630   3.14630
 Alpha virt. eigenvalues --    3.16634   3.16644   3.20033   3.20033   3.25622
 Alpha virt. eigenvalues --    3.25622   3.26973   3.26973   3.30592   3.30603
 Alpha virt. eigenvalues --    3.32532   3.32532   3.32540   3.32540   3.32543
 Alpha virt. eigenvalues --    3.35106   3.35106   3.37368   3.37368   3.37376
 Alpha virt. eigenvalues --    3.37376   3.37381   3.37381   3.37382   3.44252
 Alpha virt. eigenvalues --    3.63418   3.63418   3.87891   3.88068   3.88080
 Alpha virt. eigenvalues --    3.94280   4.05707   4.23976   4.23987   4.53506
 Alpha virt. eigenvalues --    4.53506   4.76972   4.83839   4.83846   5.39962
 Alpha virt. eigenvalues --    5.66773   5.69780   5.69788   5.71427   5.71427
 Alpha virt. eigenvalues --    5.71433   5.80310   5.80319   6.39754   6.39759
 Alpha virt. eigenvalues --    7.50723   8.41863   9.18343   9.18343   9.19155
 Alpha virt. eigenvalues --    9.19155   9.21527   9.21527   9.30999   9.30999
 Alpha virt. eigenvalues --    9.31003   9.31003   9.31005   9.31005   9.31006
 Alpha virt. eigenvalues --    9.42047   9.42047   9.57544   9.59265   9.59269
 Alpha virt. eigenvalues --    9.68612   9.68612   9.70242   9.70246   9.73823
 Alpha virt. eigenvalues --    9.73823   9.78717   9.78717   9.78721   9.78721
 Alpha virt. eigenvalues --    9.78722   9.89799   9.89803  10.02758  10.08801
 Alpha virt. eigenvalues --   10.08804  10.43220  10.56726  11.00751  13.54399
 Alpha virt. eigenvalues --   15.43174
          Condensed to atoms (all electrons):
               1          2          3          4
     1  F   10.000000  -0.000000   0.000000  -0.000000
     2  F   -0.000000   9.764474   0.092561  -0.101943
     3  H    0.000000   0.092561   0.304695   0.092561
     4  F   -0.000000  -0.101943   0.092561   9.764474
 Mulliken charges:
               1
     1  F   -1.000000
     2  F   -0.755091
     3  H    0.510183
     4  F   -0.755091
 Sum of Mulliken charges =  -2.00000
 Mulliken charges with hydrogens summed into heavy atoms:
               1
     1  F   -1.000000
     2  F   -0.244909
     4  F   -0.755091
 Electronic spatial extent (au):  <R**2>=           3857.1132
 Charge=             -2.0000 electrons
 Dipole moment (field-independent basis, Debye):
    X=              0.0000    Y=              0.0000    Z=            -21.4273  Tot=             21.4273
 Quadrupole moment (field-independent basis, Debye-Ang):
   XX=            -19.7385   YY=            -28.8705   ZZ=           -443.7620
   XY=             -0.0000   XZ=             -0.0000   YZ=              0.0000
 Traceless Quadrupole moment (field-independent basis, Debye-Ang):
   XX=            144.3852   YY=            135.2531   ZZ=           -279.6384
   XY=             -0.0000   XZ=             -0.0000   YZ=              0.0000
 Octapole moment (field-independent basis, Debye-Ang**2):
  XXX=              0.0000  YYY=             -0.0000  ZZZ=          -2655.0719  XYY=              0.0000
  XXY=              0.0000  XXZ=            -10.2994  XZZ=              0.0000  YZZ=              0.0000
  YYZ=             26.4532  XYZ=              0.0000
 Hexadecapole moment (field-independent basis, Debye-Ang**3):
 XXXX=            -18.2005 YYYY=           -122.6288 ZZZZ=         -30535.6276 XXXY=             -0.0000
 XXXZ=             -0.0000 YYYX=             -0.0000 YYYZ=              0.0000 ZZZX=             -0.0000
 ZZZY=             -0.0000 XXYY=            -22.0973 XXZZ=           -725.2274 YYZZ=           -889.1588
 XXYZ=              0.0000 YYXZ=             -0.0000 ZZXY=             -0.0000
 N-N= 3.438983683276D+01 E-N=-7.991602716911D+02  KE= 2.988724267475D+02
 Symmetry A1   KE= 1.805250120989D+02
 Symmetry A2   KE= 6.156426935721D+00
 Symmetry B1   KE= 1.146115383079D+01
 Symmetry B2   KE= 1.007298338822D+02
 1\1\GINC-HELIOS\SP\RCCSD-FC\Aug-CC-pVTZ\F3H1(2-)\POHL\07-May-2025\0\\#
  CCSD/aug-cc-pVTZ SP\\Single-point energy of X- + Y- at fixed distance
  R\\-2,1\F,0,0.,0.,12.5\F,0,-1.139,0.,0.\H,0,0.,0.,0.\F,0,1.139,0.,0.\
 \Version=EM64L-G16RevB.01\State=1-A1\HF=-298.9862202\MP2=-299.8615883\
 MP3=-299.8381784\MP4D=-299.8540489\MP4DQ=-299.8439734\MP4SDQ=-299.8556
 557\CCSD=-299.8495411\RMSD=5.283e-09\PG=C02V [C2(H1F1),SGV(F2)]\\@


 A leading authority is anyone who has guessed right more than once.
 -- Frank A. Clark
 Job cpu time:       0 days  0 hours  4 minutes 41.6 seconds.
 Elapsed time:       0 days  0 hours  0 minutes 28.6 seconds.
 File lengths (MBytes):  RWF=    584 Int=      0 D2E=      0 Chk=      3 Scr=      1
 Normal termination of Gaussian 16 at Wed May  7 12:32:57 2025.
