 Entering Gaussian System, Link 0=g16
 Initial command:
 /opt/g16/l1.exe "/home/pohl/scratches/g16/Gau-1290905.inp" -scrdir="/home/pohl/scratches/g16/"
 Entering Link 1 = /opt/g16/l1.exe PID=   1290907.
  
 Copyright (c) 1988-2017, Gaussian, Inc.  All Rights Reserved.
  
 This is part of the Gaussian(R) 16 program.  It is based on
 the Gaussian(R) 09 system (copyright 2009, Gaussian, Inc.),
 the Gaussian(R) 03 system (copyright 2003, Gaussian, Inc.),
 the Gaussian(R) 98 system (copyright 1998, Gaussian, Inc.),
 the Gaussian(R) 94 system (copyright 1995, Gaussian, Inc.),
 the Gaussian 92(TM) system (copyright 1992, Gaussian, Inc.),
 the Gaussian 90(TM) system (copyright 1990, Gaussian, Inc.),
 the Gaussian 88(TM) system (copyright 1988, Gaussian, Inc.),
 the Gaussian 86(TM) system (copyright 1986, Carnegie Mellon
 University), and the Gaussian 82(TM) system (copyright 1983,
 Carnegie Mellon University). Gaussian is a federally registered
 trademark of Gaussian, Inc.
  
 This software contains proprietary and confidential information,
 including trade secrets, belonging to Gaussian, Inc.
  
 This software is provided under written license and may be
 used, copied, transmitted, or stored only in accord with that
 written license.
  
 The following legend is applicable only to US Government
 contracts under FAR:
  
                    RESTRICTED RIGHTS LEGEND
  
 Use, reproduction and disclosure by the US Government is
 subject to restrictions as set forth in subparagraphs (a)
 and (c) of the Commercial Computer Software - Restricted
 Rights clause in FAR 52.227-19.
  
 Gaussian, Inc.
 340 Quinnipiac St., Bldg. 40, Wallingford CT 06492
  
  
 ---------------------------------------------------------------
 Warning -- This program may not be used in any manner that
 competes with the business of Gaussian, Inc. or will provide
 assistance to any competitor of Gaussian, Inc.  The licensee
 of this program is prohibited from giving any competitor of
 Gaussian, Inc. access to this program.  By using this program,
 the user acknowledges that Gaussian, Inc. is engaged in the
 business of creating and licensing software in the field of
 computational chemistry and represents and warrants to the
 licensee that it is not a competitor of Gaussian, Inc. and that
 it will not use this program in any manner prohibited above.
 ---------------------------------------------------------------
  

 Cite this work as:
 Gaussian 16, Revision B.01,
 M. J. Frisch, G. W. Trucks, H. B. Schlegel, G. E. Scuseria, 
 M. A. Robb, J. R. Cheeseman, G. Scalmani, V. Barone, 
 G. A. Petersson, H. Nakatsuji, X. Li, M. Caricato, A. V. Marenich, 
 J. Bloino, B. G. Janesko, R. Gomperts, B. Mennucci, H. P. Hratchian, 
 J. V. Ortiz, A. F. Izmaylov, J. L. Sonnenberg, D. Williams-Young, 
 F. Ding, F. Lipparini, F. Egidi, J. Goings, B. Peng, A. Petrone, 
 T. Henderson, D. Ranasinghe, V. G. Zakrzewski, J. Gao, N. Rega, 
 G. Zheng, W. Liang, M. Hada, M. Ehara, K. Toyota, R. Fukuda, 
 J. Hasegawa, M. Ishida, T. Nakajima, Y. Honda, O. Kitao, H. Nakai, 
 T. Vreven, K. Throssell, J. A. Montgomery, Jr., J. E. Peralta, 
 F. Ogliaro, M. J. Bearpark, J. J. Heyd, E. N. Brothers, K. N. Kudin, 
 V. N. Staroverov, T. A. Keith, R. Kobayashi, J. Normand, 
 K. Raghavachari, A. P. Rendell, J. C. Burant, S. S. Iyengar, 
 J. Tomasi, M. Cossi, J. M. Millam, M. Klene, C. Adamo, R. Cammi, 
 J. W. Ochterski, R. L. Martin, K. Morokuma, O. Farkas, 
 J. B. Foresman, and D. J. Fox, Gaussian, Inc., Wallingford CT, 2016.
 
 ******************************************
 Gaussian 16:  EM64L-G16RevB.01 20-Dec-2017
                 7-May-2025 
 ******************************************
 %mem=30GB
 %nprocshared=10
 Will use up to   10 processors via shared memory.
 ---------------------
 # CCSD/aug-cc-pVTZ SP
 ---------------------
 1/38=1,172=1/1;
 2/12=2,17=6,18=5,40=1/2;
 3/5=16,6=1,7=10,11=9,25=1,30=1/1,2,3;
 4//1;
 5/5=2,38=5/2;
 8/6=4,9=120000,10=1/1,4;
 9/5=7/13;
 6/7=2,8=2,9=2,10=2/1;
 99/5=1,9=1/99;
 --------------------------------------------------
 Single-point energy of X- + Y- at fixed distance R
 --------------------------------------------------
 Symbolic Z-matrix:
 Charge = -2 Multiplicity = 1
 F                     0.        0.        13. 
 F                    -1.139     0.        0. 
 H                     0.        0.        0. 
 F                     1.139     0.        0. 
 
                          Input orientation:                          
 ---------------------------------------------------------------------
 Center     Atomic      Atomic             Coordinates (Angstroms)
 Number     Number       Type             X           Y           Z
 ---------------------------------------------------------------------
      1          9           0        0.000000    0.000000   13.000000
      2          9           0       -1.139000    0.000000    0.000000
      3          1           0        0.000000    0.000000    0.000000
      4          9           0        1.139000    0.000000    0.000000
 ---------------------------------------------------------------------
                    Distance matrix (angstroms):
                    1          2          3          4
     1  F    0.000000
     2  F   13.049802   0.000000
     3  H   13.000000   1.139000   0.000000
     4  F   13.049802   2.278000   1.139000   0.000000
 Stoichiometry    F3H(2-)
 Framework group  C2V[C2(HF),SGV(F2)]
 Deg. of freedom     3
 Full point group                 C2V     NOp   4
 Largest Abelian subgroup         C2V     NOp   4
 Largest concise Abelian subgroup C2      NOp   2
                         Standard orientation:                         
 ---------------------------------------------------------------------
 Center     Atomic      Atomic             Coordinates (Angstroms)
 Number     Number       Type             X           Y           Z
 ---------------------------------------------------------------------
      1          9           0        0.000000    0.000000    8.821429
      2          9           0        0.000000    1.139000   -4.178571
      3          1           0        0.000000    0.000000   -4.178571
      4          9           0       -0.000000   -1.139000   -4.178571
 ---------------------------------------------------------------------
 Rotational constants (GHZ):          10.2523318           0.2340712           0.2288464
 Standard basis: Aug-CC-pVTZ (5D, 7F)
 There are    74 symmetry adapted cartesian basis functions of A1  symmetry.
 There are    25 symmetry adapted cartesian basis functions of A2  symmetry.
 There are    36 symmetry adapted cartesian basis functions of B1  symmetry.
 There are    55 symmetry adapted cartesian basis functions of B2  symmetry.
 There are    60 symmetry adapted basis functions of A1  symmetry.
 There are    23 symmetry adapted basis functions of A2  symmetry.
 There are    32 symmetry adapted basis functions of B1  symmetry.
 There are    46 symmetry adapted basis functions of B2  symmetry.
   161 basis functions,   243 primitive gaussians,   190 cartesian basis functions
    15 alpha electrons       15 beta electrons
       nuclear repulsion energy        34.1145373195 Hartrees.
 NAtoms=    4 NActive=    4 NUniq=    3 SFac= 1.78D+00 NAtFMM=   60 NAOKFM=F Big=F
 Integral buffers will be    131072 words long.
 Raffenetti 1 integral format.
 Two-electron integral symmetry is turned on.
 One-electron integrals computed using PRISM.
 NBasis=   161 RedAO= T EigKep=  2.93D-04  NBF=    60    23    32    46
 NBsUse=   161 1.00D-06 EigRej= -1.00D+00 NBFU=    60    23    32    46
 ExpMin= 2.53D-02 ExpMax= 1.95D+04 ExpMxC= 6.65D+02 IAcc=3 IRadAn=         5 AccDes= 0.00D+00
 Harris functional with IExCor=  205 and IRadAn=       5 diagonalized for initial guess.
 HarFok:  IExCor=  205 AccDes= 0.00D+00 IRadAn=         5 IDoV= 1 UseB2=F ITyADJ=14
 ICtDFT=  3500011 ScaDFX=  1.000000  1.000000  1.000000  1.000000
 FoFCou: FMM=F IPFlag=           0 FMFlag=      100000 FMFlg1=           0
         NFxFlg=           0 DoJE=T BraDBF=F KetDBF=T FulRan=T
         wScrn=  0.000000 ICntrl=       500 IOpCl=  0 I1Cent=   200000004 NGrid=           0
         NMat0=    1 NMatS0=      1 NMatT0=    0 NMatD0=    1 NMtDS0=    0 NMtDT0=    0
 Petite list used in FoFCou.
 Initial guess orbital symmetries:
       Occupied  (A1) (B2) (A1) (A1) (B2) (A1) (A1) (A1) (B1) (B2)
                 (B2) (A2) (A1) (B1) (B2)
       Virtual   (A1) (B2) (A1) (A1) (B1) (A1) (A1) (B1) (B2) (A1)
                 (B2) (A2) (B2) (B1) (A1) (A1) (A1) (B2) (B1) (A1)
                 (A1) (B1) (A1) (A2) (B2) (B2) (A2) (B1) (A1) (B2)
                 (A2) (A1) (A1) (B1) (B2) (B1) (A1) (B2) (A2) (B2)
                 (A1) (A1) (B1) (B2) (A1) (A1) (B1) (A1) (B2) (A2)
                 (B2) (B2) (A1) (A1) (B1) (B2) (A2) (B2) (A2) (A1)
                 (B1) (A1) (A2) (B2) (B1) (A1) (B1) (A1) (A2) (B2)
                 (B1) (B2) (A1) (A2) (B1) (B2) (A1) (A2) (B2) (A1)
                 (B1) (A1) (B2) (B2) (A2) (A1) (B2) (B1) (A1) (B1)
                 (A1) (A1) (B1) (A1) (A1) (B2) (B1) (A1) (A1) (B1)
                 (B2) (A2) (B2) (A2) (B2) (B2) (A1) (B1) (A1) (A2)
                 (B2) (A1) (B1) (B2) (A2) (B1) (B2) (A1) (A2) (B2)
                 (B1) (A1) (B2) (A1) (B1) (A1) (A2) (B2) (A2) (B2)
                 (B2) (A2) (A1) (B1) (B1) (A1) (A1) (B1) (A1) (B2)
                 (A2) (A1) (B2) (A1) (B2) (A1)
 The electronic state of the initial guess is 1-A1.
 Keep R1 ints in memory in symmetry-blocked form, NReq=106592091.
 Requested convergence on RMS density matrix=1.00D-08 within 128 cycles.
 Requested convergence on MAX density matrix=1.00D-06.
 Requested convergence on             energy=1.00D-06.
 No special actions if energy rises.
 SCF Done:  E(RHF) =  -298.987816041     A.U. after   10 cycles
            NFock= 10  Conv=0.53D-08     -V/T= 2.0004
 ExpMin= 2.53D-02 ExpMax= 1.95D+04 ExpMxC= 6.65D+02 IAcc=3 IRadAn=         5 AccDes= 0.00D+00
 HarFok:  IExCor=  205 AccDes= 0.00D+00 IRadAn=         5 IDoV=-2 UseB2=F ITyADJ=14
 ICtDFT= 12500011 ScaDFX=  1.000000  1.000000  1.000000  1.000000
 Range of M.O.s used for correlation:     4   161
 NBasis=   161 NAE=    15 NBE=    15 NFC=     3 NFV=     0
 NROrb=    158 NOA=    12 NOB=    12 NVA=   146 NVB=   146

 **** Warning!!: The largest alpha MO coefficient is  0.21668410D+02

 Semi-Direct transformation.
 ModeAB=           4 MOrb=            12 LenV=    4025789141
 LASXX=      5679395 LTotXX=     5679395 LenRXX=    11479218
 LTotAB=     5799823 MaxLAS=    13038792 LenRXY=           0
 NonZer=    17158613 LenScr=    26512384 LnRSAI=    13038792
 LnScr1=    20327424 LExtra=           0 Total=     71357818
 MaxDsk=          -1 SrtSym=           T ITran=            4
 JobTyp=0 Pass  1:  I=   1 to  12.
 (rs|ai) integrals will be sorted in core.
 Spin components of T(2) and E(2):
     alpha-alpha T2 =       0.2526477527D-01 E2=     -0.1154941004D+00
     alpha-beta  T2 =       0.1294484299D+00 E2=     -0.6443798245D+00
     beta-beta   T2 =       0.2526477527D-01 E2=     -0.1154941004D+00
 ANorm=    0.1086267914D+01
 E2 =    -0.8753680253D+00 EUMP2 =    -0.29986318406582D+03
 Keep R2 and R3 ints in memory in symmetry-blocked form, NReq=106598451.
 CIDS: In Core Option IDoMem=           1.
 Iterations=  50 Convergence= 0.100D-06
 Produce multiple copies of IABC intergrals
 Iteration Nr.   1
 **********************
 DD1Dir will call FoFMem   1 times, MxPair=       156
 NAB=    78 NAA=     0 NBB=     0.
 MP4(R+Q)=  0.10075522D-01
 E3=        0.23409671D-01        EUMP3=      -0.29983977439D+03
 E4(DQ)=   -0.57948922D-02        UMP4(DQ)=   -0.29984556929D+03
 E4(SDQ)=  -0.17477065D-01        UMP4(SDQ)=  -0.29985725146D+03
 DE(Corr)= -0.84100547     E(Corr)=     -299.82882151    
 NORM(A)=   0.10803551D+01
 Iteration Nr.   2
 **********************
 DD1Dir will call FoFMem   1 times, MxPair=       156
 NAB=    78 NAA=     0 NBB=     0.
 DE(Corr)= -0.86412005     E(CORR)=     -299.85193610     Delta=-2.31D-02
 NORM(A)=   0.10859320D+01
 Iteration Nr.   3
 **********************
 DD1Dir will call FoFMem   1 times, MxPair=       156
 NAB=    78 NAA=     0 NBB=     0.
 DE(Corr)= -0.86122780     E(CORR)=     -299.84904384     Delta= 2.89D-03
 NORM(A)=   0.10881114D+01
 Iteration Nr.   4
 **********************
 DD1Dir will call FoFMem   1 times, MxPair=       156
 NAB=    78 NAA=     0 NBB=     0.
 DE(Corr)= -0.86312207     E(CORR)=     -299.85093811     Delta=-1.89D-03
 NORM(A)=   0.10889535D+01
 Iteration Nr.   5
 **********************
 DD1Dir will call FoFMem   1 times, MxPair=       156
 NAB=    78 NAA=     0 NBB=     0.
 DE(Corr)= -0.86331467     E(CORR)=     -299.85113071     Delta=-1.93D-04
 NORM(A)=   0.10891381D+01
 Iteration Nr.   6
 **********************
 DD1Dir will call FoFMem   1 times, MxPair=       156
 NAB=    78 NAA=     0 NBB=     0.
 DE(Corr)= -0.86332267     E(CORR)=     -299.85113871     Delta=-8.00D-06
 NORM(A)=   0.10891920D+01
 Iteration Nr.   7
 **********************
 DD1Dir will call FoFMem   1 times, MxPair=       156
 NAB=    78 NAA=     0 NBB=     0.
 DE(Corr)= -0.86332059     E(CORR)=     -299.85113663     Delta= 2.08D-06
 NORM(A)=   0.10891965D+01
 Iteration Nr.   8
 **********************
 DD1Dir will call FoFMem   1 times, MxPair=       156
 NAB=    78 NAA=     0 NBB=     0.
 DE(Corr)= -0.86332200     E(CORR)=     -299.85113804     Delta=-1.41D-06
 NORM(A)=   0.10891989D+01
 Iteration Nr.   9
 **********************
 DD1Dir will call FoFMem   1 times, MxPair=       156
 NAB=    78 NAA=     0 NBB=     0.
 DE(Corr)= -0.86332037     E(CORR)=     -299.85113641     Delta= 1.63D-06
 NORM(A)=   0.10891996D+01
 Iteration Nr.  10
 **********************
 DD1Dir will call FoFMem   1 times, MxPair=       156
 NAB=    78 NAA=     0 NBB=     0.
 DE(Corr)= -0.86332107     E(CORR)=     -299.85113711     Delta=-7.02D-07
 NORM(A)=   0.10891996D+01
 Iteration Nr.  11
 **********************
 DD1Dir will call FoFMem   1 times, MxPair=       156
 NAB=    78 NAA=     0 NBB=     0.
 DE(Corr)= -0.86332082     E(CORR)=     -299.85113686     Delta= 2.51D-07
 NORM(A)=   0.10891997D+01
 Iteration Nr.  12
 **********************
 DD1Dir will call FoFMem   1 times, MxPair=       156
 NAB=    78 NAA=     0 NBB=     0.
 DE(Corr)= -0.86332090     E(CORR)=     -299.85113694     Delta=-7.91D-08
 NORM(A)=   0.10891997D+01
 Wavefunction amplitudes converged. E(Corr)=     -299.85113694    
 Largest amplitude= 3.68D-02
 Discarding MO integrals.

 **********************************************************************

            Population analysis using the SCF Density.

 **********************************************************************

 Orbital symmetries:
       Occupied  (B2) (A1) (A1) (A1) (B2) (A1) (A1) (B1) (A1) (A2)
                 (B2) (B2) (A1) (B2) (B1)
       Virtual   (A1) (B2) (B1) (A1) (A1) (A2) (B2) (B1) (B2) (A1)
                 (A1) (A1) (B2) (B1) (A1) (A1) (B2) (A1) (B1) (A1)
                 (A2) (B2) (B1) (A1) (A1) (A2) (B1) (B2) (A1) (A1)
                 (A2) (B2) (B1) (A1) (A2) (B2) (B2) (B1) (A1) (A1)
                 (B1) (B2) (A1) (B2) (A1) (B1) (A1) (A1) (A2) (B2)
                 (B2) (B2) (A1) (B1) (A1) (A2) (B2) (A2) (B2) (B1)
                 (A1) (A2) (B2) (B1) (A1) (A1) (A2) (B1) (B2) (A1)
                 (A2) (B2) (B1) (B2) (A1) (A2) (B1) (B2) (A1) (A1)
                 (B1) (A1) (B2) (A2) (B2) (A1) (B2) (B1) (A1) (B1)
                 (A1) (A1) (B1) (A1) (A1) (B2) (B1) (A1) (B1) (B2)
                 (A1) (A2) (B2) (A2) (B2) (B2) (A1) (B1) (A1) (A2)
                 (B2) (A2) (B2) (B1) (B2) (A1) (A2) (B1) (B2) (A1)
                 (B1) (A1) (B2) (A2) (B2) (A2) (B2) (B1) (A1) (B1)
                 (A1) (A1) (A2) (B1) (B2) (A1) (B1) (A1) (A1) (A2)
                 (B2) (A1) (B2) (A1) (B2) (A1)
 The electronic state is 1-A1.
 Alpha  occ. eigenvalues --  -25.91688 -25.91686 -25.79325  -1.21926  -1.17197
 Alpha  occ. eigenvalues --   -1.03558  -0.42840  -0.29057  -0.29054  -0.26406
 Alpha  occ. eigenvalues --   -0.26405  -0.24317  -0.14051  -0.14050  -0.14050
 Alpha virt. eigenvalues --    0.23606   0.34520   0.39581   0.39628   0.39944
 Alpha virt. eigenvalues --    0.47420   0.47498   0.48272   0.48273   0.48330
 Alpha virt. eigenvalues --    0.51806   0.52628   0.58672   0.66157   0.66210
 Alpha virt. eigenvalues --    0.76052   0.94493   0.95976   1.03999   1.04000
 Alpha virt. eigenvalues --    1.24025   1.24025   1.24939   1.24966   1.26881
 Alpha virt. eigenvalues --    1.26881   1.26898   1.26899   1.26905   1.31434
 Alpha virt. eigenvalues --    1.35417   1.35440   1.46688   1.46711   1.49701
 Alpha virt. eigenvalues --    1.49723   1.49994   1.51219   1.51219   1.51846
 Alpha virt. eigenvalues --    1.56638   1.56638   1.56659   1.61655   1.73326
 Alpha virt. eigenvalues --    2.04316   2.04338   2.09159   2.29459   2.29485
 Alpha virt. eigenvalues --    2.39457   2.88807   2.97753   3.14470   3.14470
 Alpha virt. eigenvalues --    3.16474   3.16483   3.19873   3.19873   3.25461
 Alpha virt. eigenvalues --    3.25461   3.26812   3.26812   3.30433   3.30443
 Alpha virt. eigenvalues --    3.32373   3.32373   3.32380   3.32380   3.32383
 Alpha virt. eigenvalues --    3.34946   3.34946   3.37210   3.37210   3.37217
 Alpha virt. eigenvalues --    3.37217   3.37221   3.37221   3.37222   3.44092
 Alpha virt. eigenvalues --    3.63257   3.63257   3.87733   3.87909   3.87920
 Alpha virt. eigenvalues --    3.94120   4.05547   4.23816   4.23826   4.53345
 Alpha virt. eigenvalues --    4.53346   4.76812   4.83679   4.83685   5.39802
 Alpha virt. eigenvalues --    5.66613   5.69620   5.69627   5.71268   5.71268
 Alpha virt. eigenvalues --    5.71273   5.80150   5.80158   6.39594   6.39599
 Alpha virt. eigenvalues --    7.50562   8.41703   9.18183   9.18183   9.18995
 Alpha virt. eigenvalues --    9.18995   9.21366   9.21366   9.30840   9.30840
 Alpha virt. eigenvalues --    9.30844   9.30844   9.30846   9.30846   9.30847
 Alpha virt. eigenvalues --    9.41887   9.41887   9.57384   9.59105   9.59109
 Alpha virt. eigenvalues --    9.68452   9.68452   9.70082   9.70086   9.73663
 Alpha virt. eigenvalues --    9.73663   9.78558   9.78558   9.78562   9.78562
 Alpha virt. eigenvalues --    9.78563   9.89639   9.89643  10.02598  10.08641
 Alpha virt. eigenvalues --   10.08644  10.43060  10.56566  11.00591  13.54240
 Alpha virt. eigenvalues --   15.43014
          Condensed to atoms (all electrons):
               1          2          3          4
     1  F   10.000000  -0.000000   0.000000  -0.000000
     2  F   -0.000000   9.764423   0.092523  -0.101870
     3  H    0.000000   0.092523   0.304802   0.092523
     4  F   -0.000000  -0.101870   0.092523   9.764423
 Mulliken charges:
               1
     1  F   -1.000000
     2  F   -0.755076
     3  H    0.510152
     4  F   -0.755076
 Sum of Mulliken charges =  -2.00000
 Mulliken charges with hydrogens summed into heavy atoms:
               1
     1  F   -1.000000
     2  F   -0.244924
     4  F   -0.755076
 Electronic spatial extent (au):  <R**2>=           4160.8211
 Charge=             -2.0000 electrons
 Dipole moment (field-independent basis, Debye):
    X=              0.0000    Y=              0.0000    Z=            -22.2862  Tot=             22.2862
 Quadrupole moment (field-independent basis, Debye-Ang):
   XX=            -19.7382   YY=            -28.8692   ZZ=           -478.2546
   XY=             -0.0000   XZ=             -0.0000   YZ=              0.0000
 Traceless Quadrupole moment (field-independent basis, Debye-Ang):
   XX=            155.8825   YY=            146.7515   ZZ=           -302.6339
   XY=             -0.0000   XZ=             -0.0000   YZ=              0.0000
 Octapole moment (field-independent basis, Debye-Ang**2):
  XXX=              0.0000  YYY=             -0.0000  ZZZ=          -2983.4237  XYY=              0.0000
  XXY=             -0.0000  XXZ=            -10.7117  XZZ=              0.0000  YZZ=              0.0000
  YYZ=             27.4996  XYZ=              0.0000
 Hexadecapole moment (field-independent basis, Debye-Ang**3):
 XXXX=            -18.1992 YYYY=           -122.6202 ZZZZ=         -35326.9139 XXXY=             -0.0000
 XXXZ=             -0.0000 YYYX=             -0.0000 YYYZ=             -0.0000 ZZZX=             -0.0000
 ZZZY=              0.0000 XXYY=            -22.0961 XXZZ=           -783.8426 YYZZ=           -959.7673
 XXYZ=             -0.0000 YYXZ=             -0.0000 ZZXY=             -0.0000
 N-N= 3.411453731948D+01 E-N=-7.985649197628D+02  KE= 2.988724447461D+02
 Symmetry A1   KE= 1.805247597127D+02
 Symmetry A2   KE= 6.156482115211D+00
 Symmetry B1   KE= 1.146127498340D+01
 Symmetry B2   KE= 1.007299279348D+02
 1\1\GINC-HELIOS\SP\RCCSD-FC\Aug-CC-pVTZ\F3H1(2-)\POHL\07-May-2025\0\\#
  CCSD/aug-cc-pVTZ SP\\Single-point energy of X- + Y- at fixed distance
  R\\-2,1\F,0,0.,0.,13.\F,0,-1.139,0.,0.\H,0,0.,0.,0.\F,0,1.139,0.,0.\\
 Version=EM64L-G16RevB.01\State=1-A1\HF=-298.987816\MP2=-299.8631841\MP
 3=-299.8397744\MP4D=-299.8556448\MP4DQ=-299.8455693\MP4SDQ=-299.857251
 5\CCSD=-299.8511369\RMSD=5.263e-09\PG=C02V [C2(H1F1),SGV(F2)]\\@


 MY GROUP MEETINGS AREN'T VERY STRUCTURED.
     -- PROF. M. S. GORDON, OCT. 5, 1984
 Job cpu time:       0 days  0 hours  4 minutes 18.8 seconds.
 Elapsed time:       0 days  0 hours  0 minutes 26.0 seconds.
 File lengths (MBytes):  RWF=    583 Int=      0 D2E=      0 Chk=      3 Scr=      1
 Normal termination of Gaussian 16 at Wed May  7 12:33:23 2025.
