 Entering Gaussian System, Link 0=g16
 Initial command:
 /opt/g16/l1.exe "/home/pohl/scratches/g16/Gau-1291034.inp" -scrdir="/home/pohl/scratches/g16/"
 Entering Link 1 = /opt/g16/l1.exe PID=   1291036.
  
 Copyright (c) 1988-2017, Gaussian, Inc.  All Rights Reserved.
  
 This is part of the Gaussian(R) 16 program.  It is based on
 the Gaussian(R) 09 system (copyright 2009, Gaussian, Inc.),
 the Gaussian(R) 03 system (copyright 2003, Gaussian, Inc.),
 the Gaussian(R) 98 system (copyright 1998, Gaussian, Inc.),
 the Gaussian(R) 94 system (copyright 1995, Gaussian, Inc.),
 the Gaussian 92(TM) system (copyright 1992, Gaussian, Inc.),
 the Gaussian 90(TM) system (copyright 1990, Gaussian, Inc.),
 the Gaussian 88(TM) system (copyright 1988, Gaussian, Inc.),
 the Gaussian 86(TM) system (copyright 1986, Carnegie Mellon
 University), and the Gaussian 82(TM) system (copyright 1983,
 Carnegie Mellon University). Gaussian is a federally registered
 trademark of Gaussian, Inc.
  
 This software contains proprietary and confidential information,
 including trade secrets, belonging to Gaussian, Inc.
  
 This software is provided under written license and may be
 used, copied, transmitted, or stored only in accord with that
 written license.
  
 The following legend is applicable only to US Government
 contracts under FAR:
  
                    RESTRICTED RIGHTS LEGEND
  
 Use, reproduction and disclosure by the US Government is
 subject to restrictions as set forth in subparagraphs (a)
 and (c) of the Commercial Computer Software - Restricted
 Rights clause in FAR 52.227-19.
  
 Gaussian, Inc.
 340 Quinnipiac St., Bldg. 40, Wallingford CT 06492
  
  
 ---------------------------------------------------------------
 Warning -- This program may not be used in any manner that
 competes with the business of Gaussian, Inc. or will provide
 assistance to any competitor of Gaussian, Inc.  The licensee
 of this program is prohibited from giving any competitor of
 Gaussian, Inc. access to this program.  By using this program,
 the user acknowledges that Gaussian, Inc. is engaged in the
 business of creating and licensing software in the field of
 computational chemistry and represents and warrants to the
 licensee that it is not a competitor of Gaussian, Inc. and that
 it will not use this program in any manner prohibited above.
 ---------------------------------------------------------------
  

 Cite this work as:
 Gaussian 16, Revision B.01,
 M. J. Frisch, G. W. Trucks, H. B. Schlegel, G. E. Scuseria, 
 M. A. Robb, J. R. Cheeseman, G. Scalmani, V. Barone, 
 G. A. Petersson, H. Nakatsuji, X. Li, M. Caricato, A. V. Marenich, 
 J. Bloino, B. G. Janesko, R. Gomperts, B. Mennucci, H. P. Hratchian, 
 J. V. Ortiz, A. F. Izmaylov, J. L. Sonnenberg, D. Williams-Young, 
 F. Ding, F. Lipparini, F. Egidi, J. Goings, B. Peng, A. Petrone, 
 T. Henderson, D. Ranasinghe, V. G. Zakrzewski, J. Gao, N. Rega, 
 G. Zheng, W. Liang, M. Hada, M. Ehara, K. Toyota, R. Fukuda, 
 J. Hasegawa, M. Ishida, T. Nakajima, Y. Honda, O. Kitao, H. Nakai, 
 T. Vreven, K. Throssell, J. A. Montgomery, Jr., J. E. Peralta, 
 F. Ogliaro, M. J. Bearpark, J. J. Heyd, E. N. Brothers, K. N. Kudin, 
 V. N. Staroverov, T. A. Keith, R. Kobayashi, J. Normand, 
 K. Raghavachari, A. P. Rendell, J. C. Burant, S. S. Iyengar, 
 J. Tomasi, M. Cossi, J. M. Millam, M. Klene, C. Adamo, R. Cammi, 
 J. W. Ochterski, R. L. Martin, K. Morokuma, O. Farkas, 
 J. B. Foresman, and D. J. Fox, Gaussian, Inc., Wallingford CT, 2016.
 
 ******************************************
 Gaussian 16:  EM64L-G16RevB.01 20-Dec-2017
                 7-May-2025 
 ******************************************
 %mem=30GB
 %nprocshared=10
 Will use up to   10 processors via shared memory.
 ---------------------
 # CCSD/aug-cc-pVTZ SP
 ---------------------
 1/38=1,172=1/1;
 2/12=2,17=6,18=5,40=1/2;
 3/5=16,6=1,7=10,11=9,25=1,30=1/1,2,3;
 4//1;
 5/5=2,38=5/2;
 8/6=4,9=120000,10=1/1,4;
 9/5=7/13;
 6/7=2,8=2,9=2,10=2/1;
 99/5=1,9=1/99;
 --------------------------------------------------
 Single-point energy of X- + Y- at fixed distance R
 --------------------------------------------------
 Symbolic Z-matrix:
 Charge = -2 Multiplicity = 1
 F                     0.        0.        13.5 
 F                    -1.139     0.        0. 
 H                     0.        0.        0. 
 F                     1.139     0.        0. 
 
                          Input orientation:                          
 ---------------------------------------------------------------------
 Center     Atomic      Atomic             Coordinates (Angstroms)
 Number     Number       Type             X           Y           Z
 ---------------------------------------------------------------------
      1          9           0        0.000000    0.000000   13.500000
      2          9           0       -1.139000    0.000000    0.000000
      3          1           0        0.000000    0.000000    0.000000
      4          9           0        1.139000    0.000000    0.000000
 ---------------------------------------------------------------------
                    Distance matrix (angstroms):
                    1          2          3          4
     1  F    0.000000
     2  F   13.547964   0.000000
     3  H   13.500000   1.139000   0.000000
     4  F   13.547964   2.278000   1.139000   0.000000
 Stoichiometry    F3H(2-)
 Framework group  C2V[C2(HF),SGV(F2)]
 Deg. of freedom     3
 Full point group                 C2V     NOp   4
 Largest Abelian subgroup         C2V     NOp   4
 Largest concise Abelian subgroup C2      NOp   2
                         Standard orientation:                         
 ---------------------------------------------------------------------
 Center     Atomic      Atomic             Coordinates (Angstroms)
 Number     Number       Type             X           Y           Z
 ---------------------------------------------------------------------
      1          9           0        0.000000    0.000000    9.160714
      2          9           0        0.000000    1.139000   -4.339286
      3          1           0        0.000000    0.000000   -4.339286
      4          9           0       -0.000000   -1.139000   -4.339286
 ---------------------------------------------------------------------
 Rotational constants (GHZ):          10.2523318           0.2170537           0.2125536
 Standard basis: Aug-CC-pVTZ (5D, 7F)
 There are    74 symmetry adapted cartesian basis functions of A1  symmetry.
 There are    25 symmetry adapted cartesian basis functions of A2  symmetry.
 There are    36 symmetry adapted cartesian basis functions of B1  symmetry.
 There are    55 symmetry adapted cartesian basis functions of B2  symmetry.
 There are    60 symmetry adapted basis functions of A1  symmetry.
 There are    23 symmetry adapted basis functions of A2  symmetry.
 There are    32 symmetry adapted basis functions of B1  symmetry.
 There are    46 symmetry adapted basis functions of B2  symmetry.
   161 basis functions,   243 primitive gaussians,   190 cartesian basis functions
    15 alpha electrons       15 beta electrons
       nuclear repulsion energy        33.8594176154 Hartrees.
 NAtoms=    4 NActive=    4 NUniq=    3 SFac= 1.78D+00 NAtFMM=   60 NAOKFM=F Big=F
 Integral buffers will be    131072 words long.
 Raffenetti 1 integral format.
 Two-electron integral symmetry is turned on.
 One-electron integrals computed using PRISM.
 NBasis=   161 RedAO= T EigKep=  2.93D-04  NBF=    60    23    32    46
 NBsUse=   161 1.00D-06 EigRej= -1.00D+00 NBFU=    60    23    32    46
 ExpMin= 2.53D-02 ExpMax= 1.95D+04 ExpMxC= 6.65D+02 IAcc=3 IRadAn=         5 AccDes= 0.00D+00
 Harris functional with IExCor=  205 and IRadAn=       5 diagonalized for initial guess.
 HarFok:  IExCor=  205 AccDes= 0.00D+00 IRadAn=         5 IDoV= 1 UseB2=F ITyADJ=14
 ICtDFT=  3500011 ScaDFX=  1.000000  1.000000  1.000000  1.000000
 FoFCou: FMM=F IPFlag=           0 FMFlag=      100000 FMFlg1=           0
         NFxFlg=           0 DoJE=T BraDBF=F KetDBF=T FulRan=T
         wScrn=  0.000000 ICntrl=       500 IOpCl=  0 I1Cent=   200000004 NGrid=           0
         NMat0=    1 NMatS0=      1 NMatT0=    0 NMatD0=    1 NMtDS0=    0 NMtDT0=    0
 Petite list used in FoFCou.
 Initial guess orbital symmetries:
       Occupied  (A1) (B2) (A1) (A1) (B2) (A1) (A1) (A1) (B1) (B2)
                 (B2) (A2) (B1) (B2) (A1)
       Virtual   (A1) (B2) (A1) (A1) (B1) (A1) (A1) (B1) (B2) (A1)
                 (B2) (A2) (B2) (A1) (B1) (A1) (A1) (B2) (B1) (A1)
                 (A2) (A1) (B1) (B2) (A1) (B2) (A2) (A1) (B1) (B2)
                 (A2) (A1) (B1) (A1) (A1) (B1) (B2) (A2) (B2) (B2)
                 (A1) (A1) (B1) (B2) (A1) (A1) (A1) (B1) (B2) (A2)
                 (B2) (B2) (A1) (A1) (B1) (A2) (B2) (B2) (A2) (A2)
                 (A1) (B1) (B2) (A1) (A1) (B1) (B1) (A1) (A2) (B2)
                 (B1) (B2) (A1) (A2) (B1) (B2) (A1) (A2) (B2) (A1)
                 (B1) (A1) (B2) (A2) (B2) (A1) (B2) (A1) (B1) (B1)
                 (A1) (A1) (B1) (A1) (A1) (A1) (B1) (B2) (B1) (A1)
                 (B2) (A2) (B2) (A2) (B2) (B2) (A1) (B1) (A1) (B2)
                 (A2) (A1) (B1) (B2) (A2) (B1) (B2) (A1) (A2) (B2)
                 (B1) (A1) (B2) (A2) (A1) (B1) (B2) (A1) (A2) (B2)
                 (B2) (A2) (A1) (B1) (A1) (B1) (B1) (A1) (A1) (B2)
                 (A2) (A1) (B2) (A1) (B2) (A1)
 The electronic state of the initial guess is 1-A1.
 Keep R1 ints in memory in symmetry-blocked form, NReq=106592091.
 Requested convergence on RMS density matrix=1.00D-08 within 128 cycles.
 Requested convergence on MAX density matrix=1.00D-06.
 Requested convergence on             energy=1.00D-06.
 No special actions if energy rises.
 SCF Done:  E(RHF) =  -298.989296041     A.U. after   10 cycles
            NFock= 10  Conv=0.52D-08     -V/T= 2.0004
 ExpMin= 2.53D-02 ExpMax= 1.95D+04 ExpMxC= 6.65D+02 IAcc=3 IRadAn=         5 AccDes= 0.00D+00
 HarFok:  IExCor=  205 AccDes= 0.00D+00 IRadAn=         5 IDoV=-2 UseB2=F ITyADJ=14
 ICtDFT= 12500011 ScaDFX=  1.000000  1.000000  1.000000  1.000000
 Range of M.O.s used for correlation:     4   161
 NBasis=   161 NAE=    15 NBE=    15 NFC=     3 NFV=     0
 NROrb=    158 NOA=    12 NOB=    12 NVA=   146 NVB=   146

 **** Warning!!: The largest alpha MO coefficient is  0.21669950D+02

 Semi-Direct transformation.
 ModeAB=           4 MOrb=            12 LenV=    4025789141
 LASXX=      5679395 LTotXX=     5679395 LenRXX=    11479218
 LTotAB=     5799823 MaxLAS=    13038792 LenRXY=           0
 NonZer=    17158613 LenScr=    26512384 LnRSAI=    13038792
 LnScr1=    20327424 LExtra=           0 Total=     71357818
 MaxDsk=          -1 SrtSym=           T ITran=            4
 JobTyp=0 Pass  1:  I=   1 to  12.
 (rs|ai) integrals will be sorted in core.
 Spin components of T(2) and E(2):
     alpha-alpha T2 =       0.2526472965D-01 E2=     -0.1154940936D+00
     alpha-beta  T2 =       0.1294482103D+00 E2=     -0.6443798032D+00
     beta-beta   T2 =       0.2526472965D-01 E2=     -0.1154940936D+00
 ANorm=    0.1086267771D+01
 E2 =    -0.8753679904D+00 EUMP2 =    -0.29986466403141D+03
 Keep R2 and R3 ints in memory in symmetry-blocked form, NReq=106598451.
 CIDS: In Core Option IDoMem=           1.
 Iterations=  50 Convergence= 0.100D-06
 Produce multiple copies of IABC intergrals
 Iteration Nr.   1
 **********************
 DD1Dir will call FoFMem   1 times, MxPair=       156
 NAB=    78 NAA=     0 NBB=     0.
 MP4(R+Q)=  0.10075569D-01
 E3=        0.23409493D-01        EUMP3=      -0.29984125454D+03
 E4(DQ)=   -0.57947903D-02        UMP4(DQ)=   -0.29984704933D+03
 E4(SDQ)=  -0.17476856D-01        UMP4(SDQ)=  -0.29985873139D+03
 DE(Corr)= -0.84100559     E(Corr)=     -299.83030163    
 NORM(A)=   0.10803549D+01
 Iteration Nr.   2
 **********************
 DD1Dir will call FoFMem   1 times, MxPair=       156
 NAB=    78 NAA=     0 NBB=     0.
 DE(Corr)= -0.86412005     E(CORR)=     -299.85341609     Delta=-2.31D-02
 NORM(A)=   0.10859318D+01
 Iteration Nr.   3
 **********************
 DD1Dir will call FoFMem   1 times, MxPair=       156
 NAB=    78 NAA=     0 NBB=     0.
 DE(Corr)= -0.86122787     E(CORR)=     -299.85052391     Delta= 2.89D-03
 NORM(A)=   0.10881111D+01
 Iteration Nr.   4
 **********************
 DD1Dir will call FoFMem   1 times, MxPair=       156
 NAB=    78 NAA=     0 NBB=     0.
 DE(Corr)= -0.86312211     E(CORR)=     -299.85241815     Delta=-1.89D-03
 NORM(A)=   0.10889531D+01
 Iteration Nr.   5
 **********************
 DD1Dir will call FoFMem   1 times, MxPair=       156
 NAB=    78 NAA=     0 NBB=     0.
 DE(Corr)= -0.86331470     E(CORR)=     -299.85261074     Delta=-1.93D-04
 NORM(A)=   0.10891377D+01
 Iteration Nr.   6
 **********************
 DD1Dir will call FoFMem   1 times, MxPair=       156
 NAB=    78 NAA=     0 NBB=     0.
 DE(Corr)= -0.86332270     E(CORR)=     -299.85261874     Delta=-8.00D-06
 NORM(A)=   0.10891916D+01
 Iteration Nr.   7
 **********************
 DD1Dir will call FoFMem   1 times, MxPair=       156
 NAB=    78 NAA=     0 NBB=     0.
 DE(Corr)= -0.86332062     E(CORR)=     -299.85261666     Delta= 2.08D-06
 NORM(A)=   0.10891961D+01
 Iteration Nr.   8
 **********************
 DD1Dir will call FoFMem   1 times, MxPair=       156
 NAB=    78 NAA=     0 NBB=     0.
 DE(Corr)= -0.86332203     E(CORR)=     -299.85261807     Delta=-1.41D-06
 NORM(A)=   0.10891985D+01
 Iteration Nr.   9
 **********************
 DD1Dir will call FoFMem   1 times, MxPair=       156
 NAB=    78 NAA=     0 NBB=     0.
 DE(Corr)= -0.86332040     E(CORR)=     -299.85261644     Delta= 1.63D-06
 NORM(A)=   0.10891992D+01
 Iteration Nr.  10
 **********************
 DD1Dir will call FoFMem   1 times, MxPair=       156
 NAB=    78 NAA=     0 NBB=     0.
 DE(Corr)= -0.86332110     E(CORR)=     -299.85261714     Delta=-7.01D-07
 NORM(A)=   0.10891992D+01
 Iteration Nr.  11
 **********************
 DD1Dir will call FoFMem   1 times, MxPair=       156
 NAB=    78 NAA=     0 NBB=     0.
 DE(Corr)= -0.86332085     E(CORR)=     -299.85261689     Delta= 2.50D-07
 NORM(A)=   0.10891993D+01
 Iteration Nr.  12
 **********************
 DD1Dir will call FoFMem   1 times, MxPair=       156
 NAB=    78 NAA=     0 NBB=     0.
 DE(Corr)= -0.86332093     E(CORR)=     -299.85261697     Delta=-7.76D-08
 NORM(A)=   0.10891993D+01
 Wavefunction amplitudes converged. E(Corr)=     -299.85261697    
 Largest amplitude= 3.68D-02
 Discarding MO integrals.

 **********************************************************************

            Population analysis using the SCF Density.

 **********************************************************************

 Orbital symmetries:
       Occupied  (B2) (A1) (A1) (A1) (B2) (A1) (A1) (B1) (A1) (A2)
                 (B2) (B2) (A1) (B2) (B1)
       Virtual   (A1) (B2) (B1) (A1) (A1) (A2) (B2) (B1) (B2) (A1)
                 (A1) (A1) (B2) (B1) (A1) (A1) (B2) (A1) (B1) (A1)
                 (A2) (B2) (B1) (A1) (A1) (A2) (B1) (B2) (A1) (A1)
                 (A2) (B2) (B1) (A1) (A2) (B2) (B2) (B1) (A1) (A1)
                 (B1) (B2) (A1) (B2) (A1) (B1) (A1) (A1) (A2) (B2)
                 (B2) (B2) (A1) (B1) (A1) (A2) (B2) (A2) (B2) (B1)
                 (A1) (A2) (B2) (B1) (A1) (A1) (A2) (B1) (B2) (A1)
                 (A2) (B2) (B1) (B2) (A1) (A2) (B1) (B2) (A1) (A1)
                 (B1) (A1) (B2) (A2) (B2) (A1) (B2) (B1) (A1) (B1)
                 (A1) (A1) (B1) (A1) (A1) (B2) (B1) (A1) (B1) (B2)
                 (A1) (A2) (B2) (A2) (B2) (B2) (A1) (B1) (A1) (A2)
                 (B2) (A2) (B2) (B1) (B2) (A1) (A2) (B1) (B2) (A1)
                 (B1) (A1) (B2) (A2) (B2) (A2) (B2) (B1) (A1) (B1)
                 (A1) (A1) (A2) (B1) (B2) (A1) (B1) (A1) (A1) (A2)
                 (B2) (A1) (B2) (A1) (B2) (A1)
 The electronic state is 1-A1.
 Alpha  occ. eigenvalues --  -25.91837 -25.91835 -25.79472  -1.22074  -1.17346
 Alpha  occ. eigenvalues --   -1.03706  -0.42988  -0.29206  -0.29203  -0.26555
 Alpha  occ. eigenvalues --   -0.26553  -0.24466  -0.14199  -0.14198  -0.14198
 Alpha virt. eigenvalues --    0.23457   0.34382   0.39436   0.39482   0.39792
 Alpha virt. eigenvalues --    0.47276   0.47346   0.48127   0.48128   0.48180
 Alpha virt. eigenvalues --    0.51658   0.52478   0.58526   0.66009   0.66058
 Alpha virt. eigenvalues --    0.75903   0.94347   0.95827   1.03849   1.03849
 Alpha virt. eigenvalues --    1.23876   1.23876   1.24793   1.24817   1.26734
 Alpha virt. eigenvalues --    1.26734   1.26750   1.26750   1.26756   1.31286
 Alpha virt. eigenvalues --    1.35271   1.35292   1.46540   1.46560   1.49553
 Alpha virt. eigenvalues --    1.49572   1.49847   1.51070   1.51070   1.51699
 Alpha virt. eigenvalues --    1.56490   1.56491   1.56510   1.61508   1.73177
 Alpha virt. eigenvalues --    2.04168   2.04188   2.09011   2.29311   2.29335
 Alpha virt. eigenvalues --    2.39308   2.88659   2.97604   3.14321   3.14321
 Alpha virt. eigenvalues --    3.16326   3.16334   3.19724   3.19724   3.25313
 Alpha virt. eigenvalues --    3.25313   3.26663   3.26663   3.30285   3.30294
 Alpha virt. eigenvalues --    3.32226   3.32226   3.32232   3.32232   3.32235
 Alpha virt. eigenvalues --    3.34797   3.34797   3.37063   3.37063   3.37069
 Alpha virt. eigenvalues --    3.37069   3.37073   3.37073   3.37074   3.43944
 Alpha virt. eigenvalues --    3.63109   3.63109   3.87586   3.87762   3.87771
 Alpha virt. eigenvalues --    3.93972   4.05399   4.23668   4.23677   4.53196
 Alpha virt. eigenvalues --    4.53196   4.76664   4.83531   4.83536   5.39653
 Alpha virt. eigenvalues --    5.66464   5.69472   5.69478   5.71120   5.71120
 Alpha virt. eigenvalues --    5.71125   5.80002   5.80009   6.39446   6.39450
 Alpha virt. eigenvalues --    7.50414   8.41555   9.18034   9.18034   9.18846
 Alpha virt. eigenvalues --    9.18846   9.21218   9.21218   9.30692   9.30692
 Alpha virt. eigenvalues --    9.30696   9.30696   9.30698   9.30698   9.30698
 Alpha virt. eigenvalues --    9.41738   9.41738   9.57236   9.58957   9.58960
 Alpha virt. eigenvalues --    9.68303   9.68303   9.69934   9.69938   9.73515
 Alpha virt. eigenvalues --    9.73515   9.78411   9.78411   9.78414   9.78414
 Alpha virt. eigenvalues --    9.78415   9.89491   9.89494  10.02450  10.08493
 Alpha virt. eigenvalues --   10.08496  10.42912  10.56418  11.00444  13.54092
 Alpha virt. eigenvalues --   15.42865
          Condensed to atoms (all electrons):
               1          2          3          4
     1  F   10.000000  -0.000000   0.000000  -0.000000
     2  F   -0.000000   9.764380   0.092490  -0.101807
     3  H    0.000000   0.092490   0.304895   0.092490
     4  F   -0.000000  -0.101807   0.092490   9.764380
 Mulliken charges:
               1
     1  F   -1.000000
     2  F   -0.755063
     3  H    0.510126
     4  F   -0.755063
 Sum of Mulliken charges =  -2.00000
 Mulliken charges with hydrogens summed into heavy atoms:
               1
     1  F   -1.000000
     2  F   -0.244937
     4  F   -0.755063
 Electronic spatial extent (au):  <R**2>=           4476.4421
 Charge=             -2.0000 electrons
 Dipole moment (field-independent basis, Debye):
    X=              0.0000    Y=             -0.0000    Z=            -23.1449  Tot=             23.1449
 Quadrupole moment (field-independent basis, Debye-Ang):
   XX=            -19.7379   YY=            -28.8680   ZZ=           -514.1034
   XY=             -0.0000   XZ=             -0.0000   YZ=             -0.0000
 Traceless Quadrupole moment (field-independent basis, Debye-Ang):
   XX=            167.8319   YY=            158.7018   ZZ=           -326.5336
   XY=             -0.0000   XZ=             -0.0000   YZ=             -0.0000
 Octapole moment (field-independent basis, Debye-Ang**2):
  XXX=              0.0000  YYY=              0.0000  ZZZ=          -3337.9289  XYY=              0.0000
  XXY=             -0.0000  XXZ=            -11.1240  XZZ=              0.0000  YZZ=              0.0000
  YYZ=             28.5468  XYZ=              0.0000
 Hexadecapole moment (field-independent basis, Debye-Ang**3):
 XXXX=            -18.1981 YYYY=           -122.6128 ZZZZ=         -40674.4471 XXXY=             -0.0000
 XXXZ=             -0.0000 YYYX=             -0.0000 YYYZ=             -0.0000 ZZZX=             -0.0000
 ZZZY=             -0.0000 XXYY=            -22.0951 XXZZ=           -844.7588 YYZZ=          -1033.1496
 XXYZ=              0.0000 YYXZ=             -0.0000 ZZXY=             -0.0000
 N-N= 3.385941761538D+01 E-N=-7.980131807764D+02  KE= 2.988724599275D+02
 Symmetry A1   KE= 1.805245418161D+02
 Symmetry A2   KE= 6.156529610686D+00
 Symmetry B1   KE= 1.146137936700D+01
 Symmetry B2   KE= 1.007300091337D+02
 1\1\GINC-HELIOS\SP\RCCSD-FC\Aug-CC-pVTZ\F3H1(2-)\POHL\07-May-2025\0\\#
  CCSD/aug-cc-pVTZ SP\\Single-point energy of X- + Y- at fixed distance
  R\\-2,1\F,0,0.,0.,13.5\F,0,-1.139,0.,0.\H,0,0.,0.,0.\F,0,1.139,0.,0.\
 \Version=EM64L-G16RevB.01\State=1-A1\HF=-298.989296\MP2=-299.864664\MP
 3=-299.8412545\MP4D=-299.8571249\MP4DQ=-299.8470493\MP4SDQ=-299.858731
 4\CCSD=-299.852617\RMSD=5.246e-09\PG=C02V [C2(H1F1),SGV(F2)]\\@


 Happiness is a conscious choice, not an automatic response.
 -- Mildred Barthel
 Job cpu time:       0 days  0 hours  4 minutes 37.3 seconds.
 Elapsed time:       0 days  0 hours  0 minutes 27.8 seconds.
 File lengths (MBytes):  RWF=    583 Int=      0 D2E=      0 Chk=      3 Scr=      1
 Normal termination of Gaussian 16 at Wed May  7 12:33:51 2025.
