 Entering Gaussian System, Link 0=g16
 Initial command:
 /opt/g16/l1.exe "/home/pohl/scratches/g16/Gau-1291163.inp" -scrdir="/home/pohl/scratches/g16/"
 Entering Link 1 = /opt/g16/l1.exe PID=   1291165.
  
 Copyright (c) 1988-2017, Gaussian, Inc.  All Rights Reserved.
  
 This is part of the Gaussian(R) 16 program.  It is based on
 the Gaussian(R) 09 system (copyright 2009, Gaussian, Inc.),
 the Gaussian(R) 03 system (copyright 2003, Gaussian, Inc.),
 the Gaussian(R) 98 system (copyright 1998, Gaussian, Inc.),
 the Gaussian(R) 94 system (copyright 1995, Gaussian, Inc.),
 the Gaussian 92(TM) system (copyright 1992, Gaussian, Inc.),
 the Gaussian 90(TM) system (copyright 1990, Gaussian, Inc.),
 the Gaussian 88(TM) system (copyright 1988, Gaussian, Inc.),
 the Gaussian 86(TM) system (copyright 1986, Carnegie Mellon
 University), and the Gaussian 82(TM) system (copyright 1983,
 Carnegie Mellon University). Gaussian is a federally registered
 trademark of Gaussian, Inc.
  
 This software contains proprietary and confidential information,
 including trade secrets, belonging to Gaussian, Inc.
  
 This software is provided under written license and may be
 used, copied, transmitted, or stored only in accord with that
 written license.
  
 The following legend is applicable only to US Government
 contracts under FAR:
  
                    RESTRICTED RIGHTS LEGEND
  
 Use, reproduction and disclosure by the US Government is
 subject to restrictions as set forth in subparagraphs (a)
 and (c) of the Commercial Computer Software - Restricted
 Rights clause in FAR 52.227-19.
  
 Gaussian, Inc.
 340 Quinnipiac St., Bldg. 40, Wallingford CT 06492
  
  
 ---------------------------------------------------------------
 Warning -- This program may not be used in any manner that
 competes with the business of Gaussian, Inc. or will provide
 assistance to any competitor of Gaussian, Inc.  The licensee
 of this program is prohibited from giving any competitor of
 Gaussian, Inc. access to this program.  By using this program,
 the user acknowledges that Gaussian, Inc. is engaged in the
 business of creating and licensing software in the field of
 computational chemistry and represents and warrants to the
 licensee that it is not a competitor of Gaussian, Inc. and that
 it will not use this program in any manner prohibited above.
 ---------------------------------------------------------------
  

 Cite this work as:
 Gaussian 16, Revision B.01,
 M. J. Frisch, G. W. Trucks, H. B. Schlegel, G. E. Scuseria, 
 M. A. Robb, J. R. Cheeseman, G. Scalmani, V. Barone, 
 G. A. Petersson, H. Nakatsuji, X. Li, M. Caricato, A. V. Marenich, 
 J. Bloino, B. G. Janesko, R. Gomperts, B. Mennucci, H. P. Hratchian, 
 J. V. Ortiz, A. F. Izmaylov, J. L. Sonnenberg, D. Williams-Young, 
 F. Ding, F. Lipparini, F. Egidi, J. Goings, B. Peng, A. Petrone, 
 T. Henderson, D. Ranasinghe, V. G. Zakrzewski, J. Gao, N. Rega, 
 G. Zheng, W. Liang, M. Hada, M. Ehara, K. Toyota, R. Fukuda, 
 J. Hasegawa, M. Ishida, T. Nakajima, Y. Honda, O. Kitao, H. Nakai, 
 T. Vreven, K. Throssell, J. A. Montgomery, Jr., J. E. Peralta, 
 F. Ogliaro, M. J. Bearpark, J. J. Heyd, E. N. Brothers, K. N. Kudin, 
 V. N. Staroverov, T. A. Keith, R. Kobayashi, J. Normand, 
 K. Raghavachari, A. P. Rendell, J. C. Burant, S. S. Iyengar, 
 J. Tomasi, M. Cossi, J. M. Millam, M. Klene, C. Adamo, R. Cammi, 
 J. W. Ochterski, R. L. Martin, K. Morokuma, O. Farkas, 
 J. B. Foresman, and D. J. Fox, Gaussian, Inc., Wallingford CT, 2016.
 
 ******************************************
 Gaussian 16:  EM64L-G16RevB.01 20-Dec-2017
                 7-May-2025 
 ******************************************
 %mem=30GB
 %nprocshared=10
 Will use up to   10 processors via shared memory.
 ---------------------
 # CCSD/aug-cc-pVTZ SP
 ---------------------
 1/38=1,172=1/1;
 2/12=2,17=6,18=5,40=1/2;
 3/5=16,6=1,7=10,11=9,25=1,30=1/1,2,3;
 4//1;
 5/5=2,38=5/2;
 8/6=4,9=120000,10=1/1,4;
 9/5=7/13;
 6/7=2,8=2,9=2,10=2/1;
 99/5=1,9=1/99;
 --------------------------------------------------
 Single-point energy of X- + Y- at fixed distance R
 --------------------------------------------------
 Symbolic Z-matrix:
 Charge = -2 Multiplicity = 1
 F                     0.        0.        14. 
 F                    -1.139     0.        0. 
 H                     0.        0.        0. 
 F                     1.139     0.        0. 
 
                          Input orientation:                          
 ---------------------------------------------------------------------
 Center     Atomic      Atomic             Coordinates (Angstroms)
 Number     Number       Type             X           Y           Z
 ---------------------------------------------------------------------
      1          9           0        0.000000    0.000000   14.000000
      2          9           0       -1.139000    0.000000    0.000000
      3          1           0        0.000000    0.000000    0.000000
      4          9           0        1.139000    0.000000    0.000000
 ---------------------------------------------------------------------
                    Distance matrix (angstroms):
                    1          2          3          4
     1  F    0.000000
     2  F   14.046256   0.000000
     3  H   14.000000   1.139000   0.000000
     4  F   14.046256   2.278000   1.139000   0.000000
 Stoichiometry    F3H(2-)
 Framework group  C2V[C2(HF),SGV(F2)]
 Deg. of freedom     3
 Full point group                 C2V     NOp   4
 Largest Abelian subgroup         C2V     NOp   4
 Largest concise Abelian subgroup C2      NOp   2
                         Standard orientation:                         
 ---------------------------------------------------------------------
 Center     Atomic      Atomic             Coordinates (Angstroms)
 Number     Number       Type             X           Y           Z
 ---------------------------------------------------------------------
      1          9           0       -0.000000    0.000000    9.500000
      2          9           0        0.000000    1.139000   -4.500000
      3          1           0        0.000000    0.000000   -4.500000
      4          9           0       -0.000000   -1.139000   -4.500000
 ---------------------------------------------------------------------
 Rotational constants (GHZ):          10.2523318           0.2018267           0.1979302
 Standard basis: Aug-CC-pVTZ (5D, 7F)
 There are    74 symmetry adapted cartesian basis functions of A1  symmetry.
 There are    25 symmetry adapted cartesian basis functions of A2  symmetry.
 There are    36 symmetry adapted cartesian basis functions of B1  symmetry.
 There are    55 symmetry adapted cartesian basis functions of B2  symmetry.
 There are    60 symmetry adapted basis functions of A1  symmetry.
 There are    23 symmetry adapted basis functions of A2  symmetry.
 There are    32 symmetry adapted basis functions of B1  symmetry.
 There are    46 symmetry adapted basis functions of B2  symmetry.
   161 basis functions,   243 primitive gaussians,   190 cartesian basis functions
    15 alpha electrons       15 beta electrons
       nuclear repulsion energy        33.6223441293 Hartrees.
 NAtoms=    4 NActive=    4 NUniq=    3 SFac= 1.78D+00 NAtFMM=   60 NAOKFM=F Big=F
 Integral buffers will be    131072 words long.
 Raffenetti 1 integral format.
 Two-electron integral symmetry is turned on.
 One-electron integrals computed using PRISM.
 NBasis=   161 RedAO= T EigKep=  2.93D-04  NBF=    60    23    32    46
 NBsUse=   161 1.00D-06 EigRej= -1.00D+00 NBFU=    60    23    32    46
 ExpMin= 2.53D-02 ExpMax= 1.95D+04 ExpMxC= 6.65D+02 IAcc=3 IRadAn=         5 AccDes= 0.00D+00
 Harris functional with IExCor=  205 and IRadAn=       5 diagonalized for initial guess.
 HarFok:  IExCor=  205 AccDes= 0.00D+00 IRadAn=         5 IDoV= 1 UseB2=F ITyADJ=14
 ICtDFT=  3500011 ScaDFX=  1.000000  1.000000  1.000000  1.000000
 FoFCou: FMM=F IPFlag=           0 FMFlag=      100000 FMFlg1=           0
         NFxFlg=           0 DoJE=T BraDBF=F KetDBF=T FulRan=T
         wScrn=  0.000000 ICntrl=       500 IOpCl=  0 I1Cent=   200000004 NGrid=           0
         NMat0=    1 NMatS0=      1 NMatT0=    0 NMatD0=    1 NMtDS0=    0 NMtDT0=    0
 Petite list used in FoFCou.
 Initial guess orbital symmetries:
       Occupied  (A1) (B2) (A1) (A1) (B2) (A1) (A1) (B1) (A1) (B2)
                 (A2) (B2) (B1) (B2) (A1)
       Virtual   (A1) (B2) (A1) (B1) (A1) (A1) (B2) (B1) (A1) (A1)
                 (A2) (B2) (B2) (B1) (A1) (A1) (A1) (B2) (B1) (A1)
                 (B1) (A1) (A2) (B2) (A1) (B2) (A2) (B1) (A1) (A2)
                 (B2) (A1) (A1) (B1) (B2) (B1) (A1) (A2) (B2) (B2)
                 (A1) (A1) (B1) (B2) (A1) (A1) (A1) (B1) (B2) (A2)
                 (B2) (B2) (A1) (A1) (B1) (A2) (B2) (B2) (A2) (B1)
                 (A1) (A2) (B2) (A1) (B1) (A1) (A1) (B1) (B2) (A2)
                 (A1) (A1) (B2) (B1) (A2) (B1) (B2) (A2) (B2) (A1)
                 (B1) (A1) (B2) (A2) (B2) (A1) (B2) (A1) (B1) (B1)
                 (A1) (A1) (A1) (B1) (A1) (B2) (B1) (A1) (B1) (A1)
                 (B2) (A2) (B2) (A2) (B2) (B2) (A1) (B1) (A1) (A2)
                 (B2) (A1) (A1) (B2) (B1) (A2) (B1) (B2) (A2) (B2)
                 (B1) (A1) (B2) (B1) (A2) (A1) (B2) (A1) (A2) (B2)
                 (B2) (A2) (A1) (B1) (A1) (B1) (B1) (A1) (A1) (A2)
                 (B2) (A1) (B2) (A1) (B2) (A1)
 The electronic state of the initial guess is 1-A1.
 Keep R1 ints in memory in symmetry-blocked form, NReq=106592091.
 Requested convergence on RMS density matrix=1.00D-08 within 128 cycles.
 Requested convergence on MAX density matrix=1.00D-06.
 Requested convergence on             energy=1.00D-06.
 No special actions if energy rises.
 SCF Done:  E(RHF) =  -298.990672249     A.U. after   10 cycles
            NFock= 10  Conv=0.52D-08     -V/T= 2.0004
 ExpMin= 2.53D-02 ExpMax= 1.95D+04 ExpMxC= 6.65D+02 IAcc=3 IRadAn=         5 AccDes= 0.00D+00
 HarFok:  IExCor=  205 AccDes= 0.00D+00 IRadAn=         5 IDoV=-2 UseB2=F ITyADJ=14
 ICtDFT= 12500011 ScaDFX=  1.000000  1.000000  1.000000  1.000000
 Range of M.O.s used for correlation:     4   161
 NBasis=   161 NAE=    15 NBE=    15 NFC=     3 NFV=     0
 NROrb=    158 NOA=    12 NOB=    12 NVA=   146 NVB=   146

 **** Warning!!: The largest alpha MO coefficient is  0.21671247D+02

 Semi-Direct transformation.
 ModeAB=           4 MOrb=            12 LenV=    4025789207
 LASXX=      5679395 LTotXX=     5679395 LenRXX=    11479218
 LTotAB=     5799823 MaxLAS=    13031208 LenRXY=           0
 NonZer=    17158613 LenScr=    26512384 LnRSAI=    13031208
 LnScr1=    20327424 LExtra=           0 Total=     71350234
 MaxDsk=          -1 SrtSym=           T ITran=            4
 JobTyp=0 Pass  1:  I=   1 to  12.
 (rs|ai) integrals will be sorted in core.
 Spin components of T(2) and E(2):
     alpha-alpha T2 =       0.2526469353D-01 E2=     -0.1154940925D+00
     alpha-beta  T2 =       0.1294480359D+00 E2=     -0.6443798039D+00
     beta-beta   T2 =       0.2526469353D-01 E2=     -0.1154940925D+00
 ANorm=    0.1086267657D+01
 E2 =    -0.8753679889D+00 EUMP2 =    -0.29986604023762D+03
 Keep R2 and R3 ints in memory in symmetry-blocked form, NReq=106598451.
 CIDS: In Core Option IDoMem=           1.
 Iterations=  50 Convergence= 0.100D-06
 Produce multiple copies of IABC intergrals
 Iteration Nr.   1
 **********************
 DD1Dir will call FoFMem   1 times, MxPair=       156
 NAB=    78 NAA=     0 NBB=     0.
 MP4(R+Q)=  0.10075611D-01
 E3=        0.23409352D-01        EUMP3=      -0.29984263089D+03
 E4(DQ)=   -0.57947050D-02        UMP4(DQ)=   -0.29984842559D+03
 E4(SDQ)=  -0.17476685D-01        UMP4(SDQ)=  -0.29986010757D+03
 DE(Corr)= -0.84100571     E(Corr)=     -299.83167796    
 NORM(A)=   0.10803548D+01
 Iteration Nr.   2
 **********************
 DD1Dir will call FoFMem   1 times, MxPair=       156
 NAB=    78 NAA=     0 NBB=     0.
 DE(Corr)= -0.86412007     E(CORR)=     -299.85479232     Delta=-2.31D-02
 NORM(A)=   0.10859316D+01
 Iteration Nr.   3
 **********************
 DD1Dir will call FoFMem   1 times, MxPair=       156
 NAB=    78 NAA=     0 NBB=     0.
 DE(Corr)= -0.86122796     E(CORR)=     -299.85190021     Delta= 2.89D-03
 NORM(A)=   0.10881108D+01
 Iteration Nr.   4
 **********************
 DD1Dir will call FoFMem   1 times, MxPair=       156
 NAB=    78 NAA=     0 NBB=     0.
 DE(Corr)= -0.86312216     E(CORR)=     -299.85379441     Delta=-1.89D-03
 NORM(A)=   0.10889528D+01
 Iteration Nr.   5
 **********************
 DD1Dir will call FoFMem   1 times, MxPair=       156
 NAB=    78 NAA=     0 NBB=     0.
 DE(Corr)= -0.86331475     E(CORR)=     -299.85398700     Delta=-1.93D-04
 NORM(A)=   0.10891374D+01
 Iteration Nr.   6
 **********************
 DD1Dir will call FoFMem   1 times, MxPair=       156
 NAB=    78 NAA=     0 NBB=     0.
 DE(Corr)= -0.86332275     E(CORR)=     -299.85399500     Delta=-8.00D-06
 NORM(A)=   0.10891913D+01
 Iteration Nr.   7
 **********************
 DD1Dir will call FoFMem   1 times, MxPair=       156
 NAB=    78 NAA=     0 NBB=     0.
 DE(Corr)= -0.86332067     E(CORR)=     -299.85399292     Delta= 2.08D-06
 NORM(A)=   0.10891957D+01
 Iteration Nr.   8
 **********************
 DD1Dir will call FoFMem   1 times, MxPair=       156
 NAB=    78 NAA=     0 NBB=     0.
 DE(Corr)= -0.86332208     E(CORR)=     -299.85399432     Delta=-1.41D-06
 NORM(A)=   0.10891982D+01
 Iteration Nr.   9
 **********************
 DD1Dir will call FoFMem   1 times, MxPair=       156
 NAB=    78 NAA=     0 NBB=     0.
 DE(Corr)= -0.86332045     E(CORR)=     -299.85399270     Delta= 1.63D-06
 NORM(A)=   0.10891988D+01
 Iteration Nr.  10
 **********************
 DD1Dir will call FoFMem   1 times, MxPair=       156
 NAB=    78 NAA=     0 NBB=     0.
 DE(Corr)= -0.86332115     E(CORR)=     -299.85399340     Delta=-7.01D-07
 NORM(A)=   0.10891989D+01
 Iteration Nr.  11
 **********************
 DD1Dir will call FoFMem   1 times, MxPair=       156
 NAB=    78 NAA=     0 NBB=     0.
 DE(Corr)= -0.86332090     E(CORR)=     -299.85399315     Delta= 2.49D-07
 NORM(A)=   0.10891990D+01
 Iteration Nr.  12
 **********************
 DD1Dir will call FoFMem   1 times, MxPair=       156
 NAB=    78 NAA=     0 NBB=     0.
 DE(Corr)= -0.86332097     E(CORR)=     -299.85399322     Delta=-7.60D-08
 NORM(A)=   0.10891990D+01
 Wavefunction amplitudes converged. E(Corr)=     -299.85399322    
 Largest amplitude= 3.68D-02
 Discarding MO integrals.

 **********************************************************************

            Population analysis using the SCF Density.

 **********************************************************************

 Orbital symmetries:
       Occupied  (B2) (A1) (A1) (A1) (B2) (A1) (A1) (B1) (A1) (A2)
                 (B2) (B2) (A1) (B2) (B1)
       Virtual   (A1) (B2) (B1) (A1) (A1) (A2) (B2) (B1) (B2) (A1)
                 (A1) (A1) (B2) (B1) (A1) (A1) (B2) (A1) (B1) (A1)
                 (A2) (B2) (B1) (A1) (A1) (A2) (B1) (B2) (A1) (A1)
                 (A2) (B2) (B1) (A1) (A2) (B2) (B2) (B1) (A1) (A1)
                 (B1) (B2) (A1) (B2) (A1) (B1) (A1) (A1) (A2) (B2)
                 (B2) (B2) (A1) (B1) (A1) (A2) (B2) (A2) (B2) (B1)
                 (A1) (A2) (B2) (B1) (A1) (A1) (A2) (B1) (B2) (A1)
                 (A2) (B2) (B1) (B2) (A1) (A2) (B1) (B2) (A1) (A1)
                 (B1) (A1) (B2) (A2) (B2) (A1) (B2) (B1) (A1) (B1)
                 (A1) (A1) (B1) (A1) (A1) (B2) (B1) (A1) (B1) (B2)
                 (A1) (A2) (B2) (A2) (B2) (B2) (A1) (B1) (A1) (A2)
                 (B2) (A2) (B2) (B1) (B2) (A1) (A2) (B1) (B2) (A1)
                 (B1) (A1) (B2) (A2) (B2) (A2) (B2) (B1) (A1) (B1)
                 (A1) (A1) (A2) (B1) (B2) (A1) (B1) (A1) (A1) (A2)
                 (B2) (A1) (B2) (A1) (B2) (A1)
 The electronic state is 1-A1.
 Alpha  occ. eigenvalues --  -25.91975 -25.91973 -25.79610  -1.22212  -1.17484
 Alpha  occ. eigenvalues --   -1.03843  -0.43126  -0.29344  -0.29341  -0.26693
 Alpha  occ. eigenvalues --   -0.26691  -0.24603  -0.14336  -0.14336  -0.14336
 Alpha virt. eigenvalues --    0.23319   0.34253   0.39302   0.39345   0.39651
 Alpha virt. eigenvalues --    0.47142   0.47205   0.47992   0.47992   0.48040
 Alpha virt. eigenvalues --    0.51520   0.52338   0.58390   0.65873   0.65916
 Alpha virt. eigenvalues --    0.75766   0.94210   0.95689   1.03710   1.03710
 Alpha virt. eigenvalues --    1.23737   1.23737   1.24656   1.24678   1.26598
 Alpha virt. eigenvalues --    1.26598   1.26612   1.26612   1.26617   1.31148
 Alpha virt. eigenvalues --    1.35136   1.35154   1.46402   1.46421   1.49415
 Alpha virt. eigenvalues --    1.49432   1.49710   1.50931   1.50931   1.51562
 Alpha virt. eigenvalues --    1.56354   1.56354   1.56371   1.61370   1.73039
 Alpha virt. eigenvalues --    2.04031   2.04048   2.08873   2.29175   2.29196
 Alpha virt. eigenvalues --    2.39169   2.88521   2.97466   3.14182   3.14182
 Alpha virt. eigenvalues --    3.16188   3.16195   3.19585   3.19585   3.25174
 Alpha virt. eigenvalues --    3.25174   3.26525   3.26525   3.30148   3.30156
 Alpha virt. eigenvalues --    3.32089   3.32089   3.32095   3.32095   3.32097
 Alpha virt. eigenvalues --    3.34659   3.34659   3.36926   3.36926   3.36931
 Alpha virt. eigenvalues --    3.36931   3.36935   3.36935   3.36936   3.43807
 Alpha virt. eigenvalues --    3.62970   3.62970   3.87449   3.87624   3.87633
 Alpha virt. eigenvalues --    3.93834   4.05261   4.23531   4.23539   4.53058
 Alpha virt. eigenvalues --    4.53058   4.76525   4.83393   4.83398   5.39515
 Alpha virt. eigenvalues --    5.66326   5.69334   5.69340   5.70983   5.70983
 Alpha virt. eigenvalues --    5.70987   5.79864   5.79871   6.39308   6.39311
 Alpha virt. eigenvalues --    7.50276   8.41417   9.17896   9.17896   9.18708
 Alpha virt. eigenvalues --    9.18708   9.21080   9.21080   9.30555   9.30555
 Alpha virt. eigenvalues --    9.30558   9.30558   9.30560   9.30560   9.30561
 Alpha virt. eigenvalues --    9.41600   9.41600   9.57098   9.58819   9.58822
 Alpha virt. eigenvalues --    9.68165   9.68165   9.69797   9.69800   9.73377
 Alpha virt. eigenvalues --    9.73377   9.78273   9.78273   9.78276   9.78276
 Alpha virt. eigenvalues --    9.78277   9.89353   9.89356  10.02312  10.08355
 Alpha virt. eigenvalues --   10.08358  10.42774  10.56280  11.00306  13.53954
 Alpha virt. eigenvalues --   15.42727
          Condensed to atoms (all electrons):
               1          2          3          4
     1  F   10.000000  -0.000000   0.000000  -0.000000
     2  F   -0.000000   9.764343   0.092461  -0.101752
     3  H    0.000000   0.092461   0.304975   0.092461
     4  F   -0.000000  -0.101752   0.092461   9.764343
 Mulliken charges:
               1
     1  F   -1.000000
     2  F   -0.755052
     3  H    0.510104
     4  F   -0.755052
 Sum of Mulliken charges =  -2.00000
 Mulliken charges with hydrogens summed into heavy atoms:
               1
     1  F   -1.000000
     2  F   -0.244948
     4  F   -0.755052
 Electronic spatial extent (au):  <R**2>=           4803.9759
 Charge=             -2.0000 electrons
 Dipole moment (field-independent basis, Debye):
    X=              0.0000    Y=              0.0000    Z=            -24.0036  Tot=             24.0036
 Quadrupole moment (field-independent basis, Debye-Ang):
   XX=            -19.7377   YY=            -28.8670   ZZ=           -551.3083
   XY=             -0.0000   XZ=             -0.0000   YZ=              0.0000
 Traceless Quadrupole moment (field-independent basis, Debye-Ang):
   XX=            180.2333   YY=            171.1040   ZZ=           -351.3373
   XY=             -0.0000   XZ=             -0.0000   YZ=              0.0000
 Octapole moment (field-independent basis, Debye-Ang**2):
  XXX=              0.0000  YYY=             -0.0000  ZZZ=          -3719.5938  XYY=              0.0000
  XXY=              0.0000  XXZ=            -11.5362  XZZ=              0.0000  YZZ=              0.0000
  YYZ=             29.5947  XYZ=              0.0000
 Hexadecapole moment (field-independent basis, Debye-Ang**3):
 XXXX=            -18.1972 YYYY=           -122.6064 ZZZZ=         -46620.7464 XXXY=             -0.0000
 XXXZ=             -0.0000 YYYX=             -0.0000 YYYZ=              0.0000 ZZZX=             -0.0000
 ZZZY=              0.0000 XXYY=            -22.0942 XXZZ=           -907.9758 YYZZ=          -1109.3055
 XXYZ=              0.0000 YYXZ=             -0.0000 ZZXY=             -0.0000
 N-N= 3.362234412932D+01 E-N=-7.975004476933D+02  KE= 2.988724728171D+02
 Symmetry A1   KE= 1.805243527476D+02
 Symmetry A2   KE= 6.156570710703D+00
 Symmetry B1   KE= 1.146146977550D+01
 Symmetry B2   KE= 1.007300795833D+02
 1\1\GINC-HELIOS\SP\RCCSD-FC\Aug-CC-pVTZ\F3H1(2-)\POHL\07-May-2025\0\\#
  CCSD/aug-cc-pVTZ SP\\Single-point energy of X- + Y- at fixed distance
  R\\-2,1\F,0,0.,0.,14.\F,0,-1.139,0.,0.\H,0,0.,0.,0.\F,0,1.139,0.,0.\\
 Version=EM64L-G16RevB.01\State=1-A1\HF=-298.9906722\MP2=-299.8660402\M
 P3=-299.8426309\MP4D=-299.8585012\MP4DQ=-299.8484256\MP4SDQ=-299.86010
 76\CCSD=-299.8539932\RMSD=5.232e-09\PG=C02V [C2(H1F1),SGV(F2)]\\@


 SOME THINGS ARE EASY, THEY ARE ONLY HARD TO DO.
            -- A. EINSTEIN TO J. O. HIRSCHFELDER
 THE ONLY TROUBLE WITH A SURE THING IS THE UNCERTAINTY.
     -- FROM A TEABAG (BELONGING TO W.H.?)
 Job cpu time:       0 days  0 hours  4 minutes 22.5 seconds.
 Elapsed time:       0 days  0 hours  0 minutes 26.5 seconds.
 File lengths (MBytes):  RWF=    583 Int=      0 D2E=      0 Chk=      3 Scr=      1
 Normal termination of Gaussian 16 at Wed May  7 12:34:18 2025.
