 Entering Gaussian System, Link 0=g16
 Initial command:
 /opt/g16/l1.exe "/home/pohl/scratches/g16/Gau-1291291.inp" -scrdir="/home/pohl/scratches/g16/"
 Entering Link 1 = /opt/g16/l1.exe PID=   1291293.
  
 Copyright (c) 1988-2017, Gaussian, Inc.  All Rights Reserved.
  
 This is part of the Gaussian(R) 16 program.  It is based on
 the Gaussian(R) 09 system (copyright 2009, Gaussian, Inc.),
 the Gaussian(R) 03 system (copyright 2003, Gaussian, Inc.),
 the Gaussian(R) 98 system (copyright 1998, Gaussian, Inc.),
 the Gaussian(R) 94 system (copyright 1995, Gaussian, Inc.),
 the Gaussian 92(TM) system (copyright 1992, Gaussian, Inc.),
 the Gaussian 90(TM) system (copyright 1990, Gaussian, Inc.),
 the Gaussian 88(TM) system (copyright 1988, Gaussian, Inc.),
 the Gaussian 86(TM) system (copyright 1986, Carnegie Mellon
 University), and the Gaussian 82(TM) system (copyright 1983,
 Carnegie Mellon University). Gaussian is a federally registered
 trademark of Gaussian, Inc.
  
 This software contains proprietary and confidential information,
 including trade secrets, belonging to Gaussian, Inc.
  
 This software is provided under written license and may be
 used, copied, transmitted, or stored only in accord with that
 written license.
  
 The following legend is applicable only to US Government
 contracts under FAR:
  
                    RESTRICTED RIGHTS LEGEND
  
 Use, reproduction and disclosure by the US Government is
 subject to restrictions as set forth in subparagraphs (a)
 and (c) of the Commercial Computer Software - Restricted
 Rights clause in FAR 52.227-19.
  
 Gaussian, Inc.
 340 Quinnipiac St., Bldg. 40, Wallingford CT 06492
  
  
 ---------------------------------------------------------------
 Warning -- This program may not be used in any manner that
 competes with the business of Gaussian, Inc. or will provide
 assistance to any competitor of Gaussian, Inc.  The licensee
 of this program is prohibited from giving any competitor of
 Gaussian, Inc. access to this program.  By using this program,
 the user acknowledges that Gaussian, Inc. is engaged in the
 business of creating and licensing software in the field of
 computational chemistry and represents and warrants to the
 licensee that it is not a competitor of Gaussian, Inc. and that
 it will not use this program in any manner prohibited above.
 ---------------------------------------------------------------
  

 Cite this work as:
 Gaussian 16, Revision B.01,
 M. J. Frisch, G. W. Trucks, H. B. Schlegel, G. E. Scuseria, 
 M. A. Robb, J. R. Cheeseman, G. Scalmani, V. Barone, 
 G. A. Petersson, H. Nakatsuji, X. Li, M. Caricato, A. V. Marenich, 
 J. Bloino, B. G. Janesko, R. Gomperts, B. Mennucci, H. P. Hratchian, 
 J. V. Ortiz, A. F. Izmaylov, J. L. Sonnenberg, D. Williams-Young, 
 F. Ding, F. Lipparini, F. Egidi, J. Goings, B. Peng, A. Petrone, 
 T. Henderson, D. Ranasinghe, V. G. Zakrzewski, J. Gao, N. Rega, 
 G. Zheng, W. Liang, M. Hada, M. Ehara, K. Toyota, R. Fukuda, 
 J. Hasegawa, M. Ishida, T. Nakajima, Y. Honda, O. Kitao, H. Nakai, 
 T. Vreven, K. Throssell, J. A. Montgomery, Jr., J. E. Peralta, 
 F. Ogliaro, M. J. Bearpark, J. J. Heyd, E. N. Brothers, K. N. Kudin, 
 V. N. Staroverov, T. A. Keith, R. Kobayashi, J. Normand, 
 K. Raghavachari, A. P. Rendell, J. C. Burant, S. S. Iyengar, 
 J. Tomasi, M. Cossi, J. M. Millam, M. Klene, C. Adamo, R. Cammi, 
 J. W. Ochterski, R. L. Martin, K. Morokuma, O. Farkas, 
 J. B. Foresman, and D. J. Fox, Gaussian, Inc., Wallingford CT, 2016.
 
 ******************************************
 Gaussian 16:  EM64L-G16RevB.01 20-Dec-2017
                 7-May-2025 
 ******************************************
 %mem=30GB
 %nprocshared=10
 Will use up to   10 processors via shared memory.
 ---------------------
 # CCSD/aug-cc-pVTZ SP
 ---------------------
 1/38=1,172=1/1;
 2/12=2,17=6,18=5,40=1/2;
 3/5=16,6=1,7=10,11=9,25=1,30=1/1,2,3;
 4//1;
 5/5=2,38=5/2;
 8/6=4,9=120000,10=1/1,4;
 9/5=7/13;
 6/7=2,8=2,9=2,10=2/1;
 99/5=1,9=1/99;
 --------------------------------------------------
 Single-point energy of X- + Y- at fixed distance R
 --------------------------------------------------
 Symbolic Z-matrix:
 Charge = -2 Multiplicity = 1
 F                     0.        0.        14.5 
 F                    -1.139     0.        0. 
 H                     0.        0.        0. 
 F                     1.139     0.        0. 
 
                          Input orientation:                          
 ---------------------------------------------------------------------
 Center     Atomic      Atomic             Coordinates (Angstroms)
 Number     Number       Type             X           Y           Z
 ---------------------------------------------------------------------
      1          9           0        0.000000    0.000000   14.500000
      2          9           0       -1.139000    0.000000    0.000000
      3          1           0        0.000000    0.000000    0.000000
      4          9           0        1.139000    0.000000    0.000000
 ---------------------------------------------------------------------
                    Distance matrix (angstroms):
                    1          2          3          4
     1  F    0.000000
     2  F   14.544666   0.000000
     3  H   14.500000   1.139000   0.000000
     4  F   14.544666   2.278000   1.139000   0.000000
 Stoichiometry    F3H(2-)
 Framework group  C2V[C2(HF),SGV(F2)]
 Deg. of freedom     3
 Full point group                 C2V     NOp   4
 Largest Abelian subgroup         C2V     NOp   4
 Largest concise Abelian subgroup C2      NOp   2
                         Standard orientation:                         
 ---------------------------------------------------------------------
 Center     Atomic      Atomic             Coordinates (Angstroms)
 Number     Number       Type             X           Y           Z
 ---------------------------------------------------------------------
      1          9           0        0.000000    0.000000    9.839286
      2          9           0        0.000000    1.139000   -4.660714
      3          1           0        0.000000    0.000000   -4.660714
      4          9           0       -0.000000   -1.139000   -4.660714
 ---------------------------------------------------------------------
 Rotational constants (GHZ):          10.2523318           0.1881476           0.1847570
 Standard basis: Aug-CC-pVTZ (5D, 7F)
 There are    74 symmetry adapted cartesian basis functions of A1  symmetry.
 There are    25 symmetry adapted cartesian basis functions of A2  symmetry.
 There are    36 symmetry adapted cartesian basis functions of B1  symmetry.
 There are    55 symmetry adapted cartesian basis functions of B2  symmetry.
 There are    60 symmetry adapted basis functions of A1  symmetry.
 There are    23 symmetry adapted basis functions of A2  symmetry.
 There are    32 symmetry adapted basis functions of B1  symmetry.
 There are    46 symmetry adapted basis functions of B2  symmetry.
   161 basis functions,   243 primitive gaussians,   190 cartesian basis functions
    15 alpha electrons       15 beta electrons
       nuclear repulsion energy        33.4014729379 Hartrees.
 NAtoms=    4 NActive=    4 NUniq=    3 SFac= 1.78D+00 NAtFMM=   60 NAOKFM=F Big=F
 Integral buffers will be    131072 words long.
 Raffenetti 1 integral format.
 Two-electron integral symmetry is turned on.
 One-electron integrals computed using PRISM.
 NBasis=   161 RedAO= T EigKep=  2.93D-04  NBF=    60    23    32    46
 NBsUse=   161 1.00D-06 EigRej= -1.00D+00 NBFU=    60    23    32    46
 ExpMin= 2.53D-02 ExpMax= 1.95D+04 ExpMxC= 6.65D+02 IAcc=3 IRadAn=         5 AccDes= 0.00D+00
 Harris functional with IExCor=  205 and IRadAn=       5 diagonalized for initial guess.
 HarFok:  IExCor=  205 AccDes= 0.00D+00 IRadAn=         5 IDoV= 1 UseB2=F ITyADJ=14
 ICtDFT=  3500011 ScaDFX=  1.000000  1.000000  1.000000  1.000000
 FoFCou: FMM=F IPFlag=           0 FMFlag=      100000 FMFlg1=           0
         NFxFlg=           0 DoJE=T BraDBF=F KetDBF=T FulRan=T
         wScrn=  0.000000 ICntrl=       500 IOpCl=  0 I1Cent=   200000004 NGrid=           0
         NMat0=    1 NMatS0=      1 NMatT0=    0 NMatD0=    1 NMtDS0=    0 NMtDT0=    0
 Petite list used in FoFCou.
 Initial guess orbital symmetries:
       Occupied  (A1) (B2) (A1) (A1) (B2) (A1) (A1) (B1) (A1) (B2)
                 (B2) (A2) (A1) (B1) (B2)
       Virtual   (A1) (B2) (A1) (B1) (A1) (A1) (B1) (B2) (A1) (A1)
                 (B2) (A2) (B2) (B1) (A1) (A1) (A1) (B2) (B1) (A1)
                 (A1) (B1) (B2) (A1) (A2) (B2) (A2) (B1) (A1) (B2)
                 (A2) (A1) (A1) (B1) (B2) (B1) (A1) (A2) (B2) (B2)
                 (A1) (A1) (B1) (B2) (A1) (A1) (B1) (A1) (B2) (A2)
                 (B2) (B2) (A1) (A1) (B1) (B2) (A2) (B2) (A2) (A1)
                 (B1) (B2) (A1) (A2) (B1) (A1) (B1) (A1) (B2) (A2)
                 (A1) (B2) (B1) (A2) (A1) (B2) (B1) (A2) (B2) (A1)
                 (B1) (A1) (B2) (A2) (B2) (A1) (B2) (B1) (A1) (B1)
                 (A1) (A1) (B1) (A1) (A1) (B2) (B1) (A1) (A1) (B1)
                 (B2) (A2) (B2) (A2) (B2) (B2) (A1) (B1) (A1) (B2)
                 (A2) (A1) (B2) (B1) (A2) (B2) (B1) (A1) (A2) (B2)
                 (B1) (A1) (B2) (A1) (B1) (B2) (A1) (A2) (A2) (B2)
                 (B2) (A2) (A1) (B1) (B1) (A1) (A1) (B1) (A1) (B2)
                 (A2) (A1) (B2) (A1) (B2) (A1)
 The electronic state of the initial guess is 1-A1.
 Keep R1 ints in memory in symmetry-blocked form, NReq=106592091.
 Requested convergence on RMS density matrix=1.00D-08 within 128 cycles.
 Requested convergence on MAX density matrix=1.00D-06.
 Requested convergence on             energy=1.00D-06.
 No special actions if energy rises.
 SCF Done:  E(RHF) =  -298.991955142     A.U. after   10 cycles
            NFock= 10  Conv=0.52D-08     -V/T= 2.0004
 ExpMin= 2.53D-02 ExpMax= 1.95D+04 ExpMxC= 6.65D+02 IAcc=3 IRadAn=         5 AccDes= 0.00D+00
 HarFok:  IExCor=  205 AccDes= 0.00D+00 IRadAn=         5 IDoV=-2 UseB2=F ITyADJ=14
 ICtDFT= 12500011 ScaDFX=  1.000000  1.000000  1.000000  1.000000
 Range of M.O.s used for correlation:     4   161
 NBasis=   161 NAE=    15 NBE=    15 NFC=     3 NFV=     0
 NROrb=    158 NOA=    12 NOB=    12 NVA=   146 NVB=   146

 **** Warning!!: The largest alpha MO coefficient is  0.21672345D+02

 Semi-Direct transformation.
 ModeAB=           4 MOrb=            12 LenV=    4025789267
 LASXX=      5679395 LTotXX=     5679395 LenRXX=    11479218
 LTotAB=     5799823 MaxLAS=    13029312 LenRXY=           0
 NonZer=    17158613 LenScr=    26512384 LnRSAI=    13029312
 LnScr1=    20314112 LExtra=           0 Total=     71335026
 MaxDsk=          -1 SrtSym=           T ITran=            4
 JobTyp=0 Pass  1:  I=   1 to  12.
 (rs|ai) integrals will be sorted in core.
 Spin components of T(2) and E(2):
     alpha-alpha T2 =       0.2526466479D-01 E2=     -0.1154940952D+00
     alpha-beta  T2 =       0.1294478968D+00 E2=     -0.6443798199D+00
     beta-beta   T2 =       0.2526466479D-01 E2=     -0.1154940952D+00
 ANorm=    0.1086267567D+01
 E2 =    -0.8753680104D+00 EUMP2 =    -0.29986732315245D+03
 Keep R2 and R3 ints in memory in symmetry-blocked form, NReq=106598451.
 CIDS: In Core Option IDoMem=           1.
 Iterations=  50 Convergence= 0.100D-06
 Produce multiple copies of IABC intergrals
 Iteration Nr.   1
 **********************
 DD1Dir will call FoFMem   1 times, MxPair=       156
 NAB=    78 NAA=     0 NBB=     0.
 MP4(R+Q)=  0.10075649D-01
 E3=        0.23409239D-01        EUMP3=      -0.29984391391D+03
 E4(DQ)=   -0.57946332D-02        UMP4(DQ)=   -0.29984970855D+03
 E4(SDQ)=  -0.17476544D-01        UMP4(SDQ)=  -0.29986139046D+03
 DE(Corr)= -0.84100582     E(Corr)=     -299.83296096    
 NORM(A)=   0.10803546D+01
 Iteration Nr.   2
 **********************
 DD1Dir will call FoFMem   1 times, MxPair=       156
 NAB=    78 NAA=     0 NBB=     0.
 DE(Corr)= -0.86412010     E(CORR)=     -299.85607525     Delta=-2.31D-02
 NORM(A)=   0.10859315D+01
 Iteration Nr.   3
 **********************
 DD1Dir will call FoFMem   1 times, MxPair=       156
 NAB=    78 NAA=     0 NBB=     0.
 DE(Corr)= -0.86122805     E(CORR)=     -299.85318319     Delta= 2.89D-03
 NORM(A)=   0.10881106D+01
 Iteration Nr.   4
 **********************
 DD1Dir will call FoFMem   1 times, MxPair=       156
 NAB=    78 NAA=     0 NBB=     0.
 DE(Corr)= -0.86312223     E(CORR)=     -299.85507737     Delta=-1.89D-03
 NORM(A)=   0.10889526D+01
 Iteration Nr.   5
 **********************
 DD1Dir will call FoFMem   1 times, MxPair=       156
 NAB=    78 NAA=     0 NBB=     0.
 DE(Corr)= -0.86331481     E(CORR)=     -299.85526995     Delta=-1.93D-04
 NORM(A)=   0.10891371D+01
 Iteration Nr.   6
 **********************
 DD1Dir will call FoFMem   1 times, MxPair=       156
 NAB=    78 NAA=     0 NBB=     0.
 DE(Corr)= -0.86332281     E(CORR)=     -299.85527795     Delta=-8.00D-06
 NORM(A)=   0.10891910D+01
 Iteration Nr.   7
 **********************
 DD1Dir will call FoFMem   1 times, MxPair=       156
 NAB=    78 NAA=     0 NBB=     0.
 DE(Corr)= -0.86332073     E(CORR)=     -299.85527587     Delta= 2.08D-06
 NORM(A)=   0.10891955D+01
 Iteration Nr.   8
 **********************
 DD1Dir will call FoFMem   1 times, MxPair=       156
 NAB=    78 NAA=     0 NBB=     0.
 DE(Corr)= -0.86332214     E(CORR)=     -299.85527728     Delta=-1.41D-06
 NORM(A)=   0.10891980D+01
 Iteration Nr.   9
 **********************
 DD1Dir will call FoFMem   1 times, MxPair=       156
 NAB=    78 NAA=     0 NBB=     0.
 DE(Corr)= -0.86332051     E(CORR)=     -299.85527565     Delta= 1.63D-06
 NORM(A)=   0.10891986D+01
 Iteration Nr.  10
 **********************
 DD1Dir will call FoFMem   1 times, MxPair=       156
 NAB=    78 NAA=     0 NBB=     0.
 DE(Corr)= -0.86332121     E(CORR)=     -299.85527635     Delta=-7.00D-07
 NORM(A)=   0.10891987D+01
 Iteration Nr.  11
 **********************
 DD1Dir will call FoFMem   1 times, MxPair=       156
 NAB=    78 NAA=     0 NBB=     0.
 DE(Corr)= -0.86332096     E(CORR)=     -299.85527610     Delta= 2.48D-07
 NORM(A)=   0.10891987D+01
 Iteration Nr.  12
 **********************
 DD1Dir will call FoFMem   1 times, MxPair=       156
 NAB=    78 NAA=     0 NBB=     0.
 DE(Corr)= -0.86332103     E(CORR)=     -299.85527618     Delta=-7.48D-08
 NORM(A)=   0.10891987D+01
 Wavefunction amplitudes converged. E(Corr)=     -299.85527618    
 Largest amplitude= 3.68D-02
 Discarding MO integrals.

 **********************************************************************

            Population analysis using the SCF Density.

 **********************************************************************

 Orbital symmetries:
       Occupied  (B2) (A1) (A1) (A1) (B2) (A1) (A1) (B1) (A1) (A2)
                 (B2) (B2) (A1) (B2) (B1)
       Virtual   (A1) (B2) (B1) (A1) (A1) (A2) (B2) (B1) (B2) (A1)
                 (A1) (A1) (B2) (B1) (A1) (A1) (B2) (A1) (B1) (A1)
                 (A2) (B2) (B1) (A1) (A1) (A2) (B1) (B2) (A1) (A1)
                 (A2) (B2) (B1) (A1) (A2) (B2) (B2) (B1) (A1) (A1)
                 (B1) (B2) (A1) (B2) (A1) (B1) (A1) (A1) (A2) (B2)
                 (B2) (B2) (A1) (B1) (A1) (A2) (B2) (A2) (B2) (B1)
                 (A1) (A2) (B2) (B1) (A1) (A1) (A2) (B1) (B2) (A1)
                 (A2) (B2) (B1) (B2) (A1) (A2) (B1) (B2) (A1) (A1)
                 (B1) (A1) (B2) (A2) (B2) (A1) (B2) (B1) (A1) (B1)
                 (A1) (A1) (B1) (A1) (A1) (B2) (B1) (A1) (B1) (B2)
                 (A1) (A2) (B2) (A2) (B2) (B2) (A1) (B1) (A1) (A2)
                 (B2) (A2) (B2) (B1) (B2) (A1) (A2) (B1) (B2) (A1)
                 (B1) (A1) (B2) (A2) (B2) (A2) (B2) (B1) (A1) (B1)
                 (A1) (A1) (A2) (B1) (B2) (A1) (B1) (A1) (A1) (A2)
                 (B2) (A1) (B2) (A1) (B2) (A1)
 The electronic state is 1-A1.
 Alpha  occ. eigenvalues --  -25.92104 -25.92101 -25.79738  -1.22341  -1.17612
 Alpha  occ. eigenvalues --   -1.03971  -0.43255  -0.29472  -0.29470  -0.26821
 Alpha  occ. eigenvalues --   -0.26820  -0.24732  -0.14464  -0.14464  -0.14464
 Alpha virt. eigenvalues --    0.23190   0.34133   0.39177   0.39217   0.39520
 Alpha virt. eigenvalues --    0.47017   0.47073   0.47865   0.47866   0.47909
 Alpha virt. eigenvalues --    0.51391   0.52208   0.58264   0.65745   0.65784
 Alpha virt. eigenvalues --    0.75637   0.94082   0.95560   1.03580   1.03580
 Alpha virt. eigenvalues --    1.23608   1.23608   1.24529   1.24549   1.26470
 Alpha virt. eigenvalues --    1.26470   1.26483   1.26483   1.26488   1.31019
 Alpha virt. eigenvalues --    1.35009   1.35026   1.46274   1.46291   1.49286
 Alpha virt. eigenvalues --    1.49302   1.49583   1.50802   1.50802   1.51435
 Alpha virt. eigenvalues --    1.56226   1.56226   1.56242   1.61242   1.72910
 Alpha virt. eigenvalues --    2.03903   2.03918   2.08745   2.29047   2.29066
 Alpha virt. eigenvalues --    2.39040   2.88393   2.97336   3.14053   3.14053
 Alpha virt. eigenvalues --    3.16060   3.16066   3.19457   3.19457   3.25045
 Alpha virt. eigenvalues --    3.25045   3.26396   3.26396   3.30020   3.30027
 Alpha virt. eigenvalues --    3.31961   3.31961   3.31966   3.31966   3.31968
 Alpha virt. eigenvalues --    3.34531   3.34531   3.36798   3.36798   3.36803
 Alpha virt. eigenvalues --    3.36803   3.36806   3.36806   3.36807   3.43679
 Alpha virt. eigenvalues --    3.62842   3.62842   3.87321   3.87497   3.87504
 Alpha virt. eigenvalues --    3.93706   4.05133   4.23402   4.23410   4.52929
 Alpha virt. eigenvalues --    4.52929   4.76397   4.83264   4.83269   5.39386
 Alpha virt. eigenvalues --    5.66197   5.69206   5.69210   5.70855   5.70855
 Alpha virt. eigenvalues --    5.70859   5.79736   5.79742   6.39179   6.39182
 Alpha virt. eigenvalues --    7.50147   8.41288   9.17767   9.17767   9.18579
 Alpha virt. eigenvalues --    9.18579   9.20951   9.20951   9.30427   9.30427
 Alpha virt. eigenvalues --    9.30430   9.30430   9.30432   9.30432   9.30432
 Alpha virt. eigenvalues --    9.41471   9.41471   9.56969   9.58690   9.58693
 Alpha virt. eigenvalues --    9.68037   9.68037   9.69669   9.69672   9.73248
 Alpha virt. eigenvalues --    9.73248   9.78145   9.78145   9.78148   9.78148
 Alpha virt. eigenvalues --    9.78149   9.89224   9.89227  10.02183  10.08227
 Alpha virt. eigenvalues --   10.08229  10.42645  10.56152  11.00178  13.53825
 Alpha virt. eigenvalues --   15.42599
          Condensed to atoms (all electrons):
               1          2          3          4
     1  F   10.000000  -0.000000   0.000000  -0.000000
     2  F   -0.000000   9.764311   0.092435  -0.101704
     3  H    0.000000   0.092435   0.305045   0.092435
     4  F   -0.000000  -0.101704   0.092435   9.764311
 Mulliken charges:
               1
     1  F   -1.000000
     2  F   -0.755042
     3  H    0.510085
     4  F   -0.755042
 Sum of Mulliken charges =  -2.00000
 Mulliken charges with hydrogens summed into heavy atoms:
               1
     1  F   -1.000000
     2  F   -0.244958
     4  F   -0.755042
 Electronic spatial extent (au):  <R**2>=           5143.4223
 Charge=             -2.0000 electrons
 Dipole moment (field-independent basis, Debye):
    X=              0.0000    Y=              0.0000    Z=            -24.8621  Tot=             24.8621
 Quadrupole moment (field-independent basis, Debye-Ang):
   XX=            -19.7375   YY=            -28.8661   ZZ=           -589.8690
   XY=             -0.0000   XZ=             -0.0000   YZ=              0.0000
 Traceless Quadrupole moment (field-independent basis, Debye-Ang):
   XX=            193.0867   YY=            183.9581   ZZ=           -377.0448
   XY=             -0.0000   XZ=             -0.0000   YZ=              0.0000
 Octapole moment (field-independent basis, Debye-Ang**2):
  XXX=              0.0000  YYY=              0.0000  ZZZ=          -4129.4244  XYY=              0.0000
  XXY=              0.0000  XXZ=            -11.9484  XZZ=              0.0000  YZZ=              0.0000
  YYZ=             30.6432  XYZ=              0.0000
 Hexadecapole moment (field-independent basis, Debye-Ang**3):
 XXXX=            -18.1964 YYYY=           -122.6008 ZZZZ=         -53209.9352 XXXY=             -0.0000
 XXXZ=             -0.0000 YYYX=             -0.0000 YYYZ=             -0.0000 ZZZX=             -0.0000
 ZZZY=             -0.0000 XXYY=            -22.0934 XXZZ=           -973.4936 YYZZ=          -1188.2347
 XXYZ=             -0.0000 YYXZ=             -0.0000 ZZXY=             -0.0000
 N-N= 3.340147293789D+01 E-N=-7.970227382089D+02  KE= 2.988724838279D+02
 Symmetry A1   KE= 1.805241879180D+02
 Symmetry A2   KE= 6.156606453701D+00
 Symmetry B1   KE= 1.146154846440D+01
 Symmetry B2   KE= 1.007301409917D+02
 1\1\GINC-HELIOS\SP\RCCSD-FC\Aug-CC-pVTZ\F3H1(2-)\POHL\07-May-2025\0\\#
  CCSD/aug-cc-pVTZ SP\\Single-point energy of X- + Y- at fixed distance
  R\\-2,1\F,0,0.,0.,14.5\F,0,-1.139,0.,0.\H,0,0.,0.,0.\F,0,1.139,0.,0.\
 \Version=EM64L-G16RevB.01\State=1-A1\HF=-298.9919551\MP2=-299.8673232\
 MP3=-299.8439139\MP4D=-299.8597842\MP4DQ=-299.8497085\MP4SDQ=-299.8613
 905\CCSD=-299.8552762\RMSD=5.219e-09\PG=C02V [C2(H1F1),SGV(F2)]\\@


 ABALONE: AN EXPRESSION OF DISBELIEF.
 Job cpu time:       0 days  0 hours  4 minutes 39.9 seconds.
 Elapsed time:       0 days  0 hours  0 minutes 28.1 seconds.
 File lengths (MBytes):  RWF=    582 Int=      0 D2E=      0 Chk=      3 Scr=      1
 Normal termination of Gaussian 16 at Wed May  7 12:34:46 2025.
