 Entering Gaussian System, Link 0=g16
 Initial command:
 /opt/g16/l1.exe "/home/pohl/scratches/g16/Gau-1291841.inp" -scrdir="/home/pohl/scratches/g16/"
 Entering Link 1 = /opt/g16/l1.exe PID=   1291843.
  
 Copyright (c) 1988-2017, Gaussian, Inc.  All Rights Reserved.
  
 This is part of the Gaussian(R) 16 program.  It is based on
 the Gaussian(R) 09 system (copyright 2009, Gaussian, Inc.),
 the Gaussian(R) 03 system (copyright 2003, Gaussian, Inc.),
 the Gaussian(R) 98 system (copyright 1998, Gaussian, Inc.),
 the Gaussian(R) 94 system (copyright 1995, Gaussian, Inc.),
 the Gaussian 92(TM) system (copyright 1992, Gaussian, Inc.),
 the Gaussian 90(TM) system (copyright 1990, Gaussian, Inc.),
 the Gaussian 88(TM) system (copyright 1988, Gaussian, Inc.),
 the Gaussian 86(TM) system (copyright 1986, Carnegie Mellon
 University), and the Gaussian 82(TM) system (copyright 1983,
 Carnegie Mellon University). Gaussian is a federally registered
 trademark of Gaussian, Inc.
  
 This software contains proprietary and confidential information,
 including trade secrets, belonging to Gaussian, Inc.
  
 This software is provided under written license and may be
 used, copied, transmitted, or stored only in accord with that
 written license.
  
 The following legend is applicable only to US Government
 contracts under FAR:
  
                    RESTRICTED RIGHTS LEGEND
  
 Use, reproduction and disclosure by the US Government is
 subject to restrictions as set forth in subparagraphs (a)
 and (c) of the Commercial Computer Software - Restricted
 Rights clause in FAR 52.227-19.
  
 Gaussian, Inc.
 340 Quinnipiac St., Bldg. 40, Wallingford CT 06492
  
  
 ---------------------------------------------------------------
 Warning -- This program may not be used in any manner that
 competes with the business of Gaussian, Inc. or will provide
 assistance to any competitor of Gaussian, Inc.  The licensee
 of this program is prohibited from giving any competitor of
 Gaussian, Inc. access to this program.  By using this program,
 the user acknowledges that Gaussian, Inc. is engaged in the
 business of creating and licensing software in the field of
 computational chemistry and represents and warrants to the
 licensee that it is not a competitor of Gaussian, Inc. and that
 it will not use this program in any manner prohibited above.
 ---------------------------------------------------------------
  

 Cite this work as:
 Gaussian 16, Revision B.01,
 M. J. Frisch, G. W. Trucks, H. B. Schlegel, G. E. Scuseria, 
 M. A. Robb, J. R. Cheeseman, G. Scalmani, V. Barone, 
 G. A. Petersson, H. Nakatsuji, X. Li, M. Caricato, A. V. Marenich, 
 J. Bloino, B. G. Janesko, R. Gomperts, B. Mennucci, H. P. Hratchian, 
 J. V. Ortiz, A. F. Izmaylov, J. L. Sonnenberg, D. Williams-Young, 
 F. Ding, F. Lipparini, F. Egidi, J. Goings, B. Peng, A. Petrone, 
 T. Henderson, D. Ranasinghe, V. G. Zakrzewski, J. Gao, N. Rega, 
 G. Zheng, W. Liang, M. Hada, M. Ehara, K. Toyota, R. Fukuda, 
 J. Hasegawa, M. Ishida, T. Nakajima, Y. Honda, O. Kitao, H. Nakai, 
 T. Vreven, K. Throssell, J. A. Montgomery, Jr., J. E. Peralta, 
 F. Ogliaro, M. J. Bearpark, J. J. Heyd, E. N. Brothers, K. N. Kudin, 
 V. N. Staroverov, T. A. Keith, R. Kobayashi, J. Normand, 
 K. Raghavachari, A. P. Rendell, J. C. Burant, S. S. Iyengar, 
 J. Tomasi, M. Cossi, J. M. Millam, M. Klene, C. Adamo, R. Cammi, 
 J. W. Ochterski, R. L. Martin, K. Morokuma, O. Farkas, 
 J. B. Foresman, and D. J. Fox, Gaussian, Inc., Wallingford CT, 2016.
 
 ******************************************
 Gaussian 16:  EM64L-G16RevB.01 20-Dec-2017
                 7-May-2025 
 ******************************************
 %mem=30GB
 %nprocshared=10
 Will use up to   10 processors via shared memory.
 ---------------------
 # CCSD/aug-cc-pVTZ SP
 ---------------------
 1/38=1,172=1/1;
 2/12=2,17=6,18=5,40=1/2;
 3/5=16,6=1,7=10,11=9,25=1,30=1/1,2,3;
 4//1;
 5/5=2,38=5/2;
 8/6=4,9=120000,10=1/1,4;
 9/5=7/13;
 6/7=2,8=2,9=2,10=2/1;
 99/5=1,9=1/99;
 --------------------------------------------------
 Single-point energy of X- + Y- at fixed distance R
 --------------------------------------------------
 Symbolic Z-matrix:
 Charge = -2 Multiplicity = 1
 F                     0.        0.        16.5 
 F                    -1.139     0.        0. 
 H                     0.        0.        0. 
 F                     1.139     0.        0. 
 
                          Input orientation:                          
 ---------------------------------------------------------------------
 Center     Atomic      Atomic             Coordinates (Angstroms)
 Number     Number       Type             X           Y           Z
 ---------------------------------------------------------------------
      1          9           0        0.000000    0.000000   16.500000
      2          9           0       -1.139000    0.000000    0.000000
      3          1           0        0.000000    0.000000    0.000000
      4          9           0        1.139000    0.000000    0.000000
 ---------------------------------------------------------------------
                    Distance matrix (angstroms):
                    1          2          3          4
     1  F    0.000000
     2  F   16.539266   0.000000
     3  H   16.500000   1.139000   0.000000
     4  F   16.539266   2.278000   1.139000   0.000000
 Stoichiometry    F3H(2-)
 Framework group  C2V[C2(HF),SGV(F2)]
 Deg. of freedom     3
 Full point group                 C2V     NOp   4
 Largest Abelian subgroup         C2V     NOp   4
 Largest concise Abelian subgroup C2      NOp   2
                         Standard orientation:                         
 ---------------------------------------------------------------------
 Center     Atomic      Atomic             Coordinates (Angstroms)
 Number     Number       Type             X           Y           Z
 ---------------------------------------------------------------------
      1          9           0        0.000000    0.000000   11.196429
      2          9           0        0.000000    1.139000   -5.303571
      3          1           0        0.000000   -0.000000   -5.303571
      4          9           0       -0.000000   -1.139000   -5.303571
 ---------------------------------------------------------------------
 Rotational constants (GHZ):          10.2523318           0.1453004           0.1432699
 Standard basis: Aug-CC-pVTZ (5D, 7F)
 There are    74 symmetry adapted cartesian basis functions of A1  symmetry.
 There are    25 symmetry adapted cartesian basis functions of A2  symmetry.
 There are    36 symmetry adapted cartesian basis functions of B1  symmetry.
 There are    55 symmetry adapted cartesian basis functions of B2  symmetry.
 There are    60 symmetry adapted basis functions of A1  symmetry.
 There are    23 symmetry adapted basis functions of A2  symmetry.
 There are    32 symmetry adapted basis functions of B1  symmetry.
 There are    46 symmetry adapted basis functions of B2  symmetry.
   161 basis functions,   243 primitive gaussians,   190 cartesian basis functions
    15 alpha electrons       15 beta electrons
       nuclear repulsion energy        32.6508529269 Hartrees.
 NAtoms=    4 NActive=    4 NUniq=    3 SFac= 1.78D+00 NAtFMM=   60 NAOKFM=F Big=F
 Integral buffers will be    131072 words long.
 Raffenetti 1 integral format.
 Two-electron integral symmetry is turned on.
 One-electron integrals computed using PRISM.
 NBasis=   161 RedAO= T EigKep=  2.93D-04  NBF=    60    23    32    46
 NBsUse=   161 1.00D-06 EigRej= -1.00D+00 NBFU=    60    23    32    46
 ExpMin= 2.53D-02 ExpMax= 1.95D+04 ExpMxC= 6.65D+02 IAcc=3 IRadAn=         5 AccDes= 0.00D+00
 Harris functional with IExCor=  205 and IRadAn=       5 diagonalized for initial guess.
 HarFok:  IExCor=  205 AccDes= 0.00D+00 IRadAn=         5 IDoV= 1 UseB2=F ITyADJ=14
 ICtDFT=  3500011 ScaDFX=  1.000000  1.000000  1.000000  1.000000
 FoFCou: FMM=F IPFlag=           0 FMFlag=      100000 FMFlg1=           0
         NFxFlg=           0 DoJE=T BraDBF=F KetDBF=T FulRan=T
         wScrn=  0.000000 ICntrl=       500 IOpCl=  0 I1Cent=   200000004 NGrid=           0
         NMat0=    1 NMatS0=      1 NMatT0=    0 NMatD0=    1 NMtDS0=    0 NMtDT0=    0
 Petite list used in FoFCou.
 Initial guess orbital symmetries:
       Occupied  (A1) (B2) (A1) (A1) (B2) (A1) (A1) (A1) (B1) (B2)
                 (B2) (A2) (B1) (B2) (A1)
       Virtual   (A1) (B2) (A1) (B1) (A1) (A1) (B1) (B2) (A1) (A1)
                 (B2) (A2) (B2) (B1) (A1) (A1) (A1) (B2) (B1) (A1)
                 (A1) (B1) (A1) (B2) (A2) (B2) (A2) (B1) (A1) (B2)
                 (A2) (A1) (B1) (A1) (B2) (B1) (A1) (A2) (B2) (B2)
                 (A1) (A1) (B1) (B2) (A1) (A1) (B1) (A1) (B2) (A2)
                 (B2) (B2) (A1) (A1) (B1) (B2) (A2) (B2) (A2) (A1)
                 (B1) (A1) (B2) (A2) (B1) (A1) (A1) (B1) (B2) (A2)
                 (B2) (A1) (B1) (A2) (A1) (B2) (B1) (A2) (B2) (A1)
                 (B1) (A1) (B2) (A2) (B2) (A1) (B2) (B1) (A1) (B1)
                 (A1) (A1) (B1) (A1) (A1) (B2) (B1) (A1) (B1) (A1)
                 (B2) (B2) (A2) (A2) (B2) (B2) (A1) (A1) (B1) (A2)
                 (B2) (B2) (A1) (B1) (A2) (A1) (B2) (B1) (A2) (B2)
                 (B1) (A1) (B2) (A1) (B1) (B2) (A2) (A1) (B2) (A2)
                 (B2) (A2) (A1) (B1) (B1) (A1) (A1) (B1) (A1) (B2)
                 (A2) (A1) (B2) (A1) (B2) (A1)
 The electronic state of the initial guess is 1-A1.
 Keep R1 ints in memory in symmetry-blocked form, NReq=106592091.
 Requested convergence on RMS density matrix=1.00D-08 within 128 cycles.
 Requested convergence on MAX density matrix=1.00D-06.
 Requested convergence on             energy=1.00D-06.
 No special actions if energy rises.
 SCF Done:  E(RHF) =  -298.996319876     A.U. after   10 cycles
            NFock= 10  Conv=0.52D-08     -V/T= 2.0004
 ExpMin= 2.53D-02 ExpMax= 1.95D+04 ExpMxC= 6.65D+02 IAcc=3 IRadAn=         5 AccDes= 0.00D+00
 HarFok:  IExCor=  205 AccDes= 0.00D+00 IRadAn=         5 IDoV=-2 UseB2=F ITyADJ=14
 ICtDFT= 12500011 ScaDFX=  1.000000  1.000000  1.000000  1.000000
 Range of M.O.s used for correlation:     4   161
 NBasis=   161 NAE=    15 NBE=    15 NFC=     3 NFV=     0
 NROrb=    158 NOA=    12 NOB=    12 NVA=   146 NVB=   146

 **** Warning!!: The largest alpha MO coefficient is  0.21675378D+02

 Semi-Direct transformation.
 ModeAB=           4 MOrb=            12 LenV=    4025789595
 LASXX=      5679395 LTotXX=     5679395 LenRXX=    11479218
 LTotAB=     5799823 MaxLAS=    12978120 LenRXY=           0
 NonZer=    17158613 LenScr=    26512384 LnRSAI=    12978120
 LnScr1=    20234240 LExtra=           0 Total=     71203962
 MaxDsk=          -1 SrtSym=           T ITran=            4
 JobTyp=0 Pass  1:  I=   1 to  12.
 (rs|ai) integrals will be sorted in core.
 Spin components of T(2) and E(2):
     alpha-alpha T2 =       0.2526459680D-01 E2=     -0.1154941251D+00
     alpha-beta  T2 =       0.1294475662D+00 E2=     -0.6443799567D+00
     beta-beta   T2 =       0.2526459680D-01 E2=     -0.1154941251D+00
 ANorm=    0.1086267352D+01
 E2 =    -0.8753682070D+00 EUMP2 =    -0.29987168808296D+03
 Keep R2 and R3 ints in memory in symmetry-blocked form, NReq=106598451.
 CIDS: In Core Option IDoMem=           1.
 Iterations=  50 Convergence= 0.100D-06
 Produce multiple copies of IABC intergrals
 Iteration Nr.   1
 **********************
 DD1Dir will call FoFMem   1 times, MxPair=       156
 NAB=    78 NAA=     0 NBB=     0.
 MP4(R+Q)=  0.10075765D-01
 E3=        0.23408967D-01        EUMP3=      -0.29984827912D+03
 E4(DQ)=   -0.57944380D-02        UMP4(DQ)=   -0.29985407355D+03
 E4(SDQ)=  -0.17476179D-01        UMP4(SDQ)=  -0.29986575529D+03
 DE(Corr)= -0.84100622     E(Corr)=     -299.83732609    
 NORM(A)=   0.10803543D+01
 Iteration Nr.   2
 **********************
 DD1Dir will call FoFMem   1 times, MxPair=       156
 NAB=    78 NAA=     0 NBB=     0.
 DE(Corr)= -0.86412032     E(CORR)=     -299.86044019     Delta=-2.31D-02
 NORM(A)=   0.10859312D+01
 Iteration Nr.   3
 **********************
 DD1Dir will call FoFMem   1 times, MxPair=       156
 NAB=    78 NAA=     0 NBB=     0.
 DE(Corr)= -0.86122840     E(CORR)=     -299.85754828     Delta= 2.89D-03
 NORM(A)=   0.10881101D+01
 Iteration Nr.   4
 **********************
 DD1Dir will call FoFMem   1 times, MxPair=       156
 NAB=    78 NAA=     0 NBB=     0.
 DE(Corr)= -0.86312252     E(CORR)=     -299.85944240     Delta=-1.89D-03
 NORM(A)=   0.10889520D+01
 Iteration Nr.   5
 **********************
 DD1Dir will call FoFMem   1 times, MxPair=       156
 NAB=    78 NAA=     0 NBB=     0.
 DE(Corr)= -0.86331509     E(CORR)=     -299.85963496     Delta=-1.93D-04
 NORM(A)=   0.10891365D+01
 Iteration Nr.   6
 **********************
 DD1Dir will call FoFMem   1 times, MxPair=       156
 NAB=    78 NAA=     0 NBB=     0.
 DE(Corr)= -0.86332309     E(CORR)=     -299.85964296     Delta=-8.00D-06
 NORM(A)=   0.10891903D+01
 Iteration Nr.   7
 **********************
 DD1Dir will call FoFMem   1 times, MxPair=       156
 NAB=    78 NAA=     0 NBB=     0.
 DE(Corr)= -0.86332101     E(CORR)=     -299.85964088     Delta= 2.08D-06
 NORM(A)=   0.10891948D+01
 Iteration Nr.   8
 **********************
 DD1Dir will call FoFMem   1 times, MxPair=       156
 NAB=    78 NAA=     0 NBB=     0.
 DE(Corr)= -0.86332241     E(CORR)=     -299.85964229     Delta=-1.41D-06
 NORM(A)=   0.10891973D+01
 Iteration Nr.   9
 **********************
 DD1Dir will call FoFMem   1 times, MxPair=       156
 NAB=    78 NAA=     0 NBB=     0.
 DE(Corr)= -0.86332079     E(CORR)=     -299.85964066     Delta= 1.63D-06
 NORM(A)=   0.10891979D+01
 Iteration Nr.  10
 **********************
 DD1Dir will call FoFMem   1 times, MxPair=       156
 NAB=    78 NAA=     0 NBB=     0.
 DE(Corr)= -0.86332148     E(CORR)=     -299.85964136     Delta=-6.98D-07
 NORM(A)=   0.10891980D+01
 Iteration Nr.  11
 **********************
 DD1Dir will call FoFMem   1 times, MxPair=       156
 NAB=    78 NAA=     0 NBB=     0.
 DE(Corr)= -0.86332124     E(CORR)=     -299.85964111     Delta= 2.45D-07
 NORM(A)=   0.10891980D+01
 Iteration Nr.  12
 **********************
 DD1Dir will call FoFMem   1 times, MxPair=       156
 NAB=    78 NAA=     0 NBB=     0.
 DE(Corr)= -0.86332131     E(CORR)=     -299.85964119     Delta=-7.08D-08
 NORM(A)=   0.10891980D+01
 Wavefunction amplitudes converged. E(Corr)=     -299.85964119    
 Largest amplitude= 3.68D-02
 Discarding MO integrals.

 **********************************************************************

            Population analysis using the SCF Density.

 **********************************************************************

 Orbital symmetries:
       Occupied  (B2) (A1) (A1) (A1) (B2) (A1) (A1) (B1) (A1) (A2)
                 (B2) (B2) (A1) (B2) (B1)
       Virtual   (A1) (B2) (B1) (A1) (A1) (A2) (B2) (B1) (B2) (A1)
                 (A1) (A1) (B2) (B1) (A1) (A1) (B2) (A1) (B1) (A1)
                 (A2) (B2) (B1) (A1) (A1) (A2) (B1) (B2) (A1) (A1)
                 (A2) (B2) (B1) (A1) (A2) (B2) (B2) (B1) (A1) (A1)
                 (B1) (B2) (A1) (B2) (A1) (B1) (A1) (A1) (A2) (B2)
                 (B2) (B2) (A1) (B1) (A1) (A2) (B2) (A2) (B2) (B1)
                 (A1) (A2) (B2) (B1) (A1) (A1) (A2) (B1) (B2) (A1)
                 (A2) (B2) (B1) (B2) (A1) (A2) (B1) (B2) (A1) (A1)
                 (B1) (A1) (B2) (A2) (B2) (A1) (B2) (B1) (A1) (B1)
                 (A1) (A1) (B1) (A1) (A1) (B2) (B1) (A1) (B1) (B2)
                 (A1) (A2) (B2) (A2) (B2) (B2) (A1) (B1) (A1) (A2)
                 (B2) (A2) (B2) (B1) (B2) (A1) (A2) (B1) (B2) (A1)
                 (B1) (A1) (B2) (A2) (B2) (A2) (B2) (B1) (A1) (B1)
                 (A1) (A1) (A2) (B1) (B2) (A1) (B1) (A1) (A1) (A2)
                 (B2) (A1) (B2) (A1) (B2) (A1)
 The electronic state is 1-A1.
 Alpha  occ. eigenvalues --  -25.92541 -25.92539 -25.80174  -1.22779  -1.18050
 Alpha  occ. eigenvalues --   -1.04407  -0.43693  -0.29910  -0.29908  -0.27258
 Alpha  occ. eigenvalues --   -0.27258  -0.25169  -0.14900  -0.14900  -0.14900
 Alpha virt. eigenvalues --    0.22752   0.33719   0.38748   0.38780   0.39078
 Alpha virt. eigenvalues --    0.46589   0.46628   0.47435   0.47435   0.47466
 Alpha virt. eigenvalues --    0.50953   0.51767   0.57832   0.65311   0.65337
 Alpha virt. eigenvalues --    0.75201   0.93649   0.95121   1.03138   1.03138
 Alpha virt. eigenvalues --    1.23170   1.23170   1.24096   1.24109   1.26037
 Alpha virt. eigenvalues --    1.26037   1.26046   1.26046   1.26049   1.30582
 Alpha virt. eigenvalues --    1.34577   1.34589   1.45838   1.45849   1.48849
 Alpha virt. eigenvalues --    1.48859   1.49149   1.50363   1.50363   1.51000
 Alpha virt. eigenvalues --    1.55791   1.55791   1.55802   1.60806   1.72471
 Alpha virt. eigenvalues --    2.03467   2.03477   2.08309   2.28612   2.28625
 Alpha virt. eigenvalues --    2.38602   2.87956   2.96898   3.13615   3.13615
 Alpha virt. eigenvalues --    3.15623   3.15627   3.19018   3.19018   3.24607
 Alpha virt. eigenvalues --    3.24607   3.25958   3.25958   3.29584   3.29589
 Alpha virt. eigenvalues --    3.31526   3.31526   3.31530   3.31530   3.31531
 Alpha virt. eigenvalues --    3.34093   3.34093   3.36363   3.36363   3.36367
 Alpha virt. eigenvalues --    3.36367   3.36369   3.36369   3.36370   3.43242
 Alpha virt. eigenvalues --    3.62404   3.62404   3.86887   3.87061   3.87067
 Alpha virt. eigenvalues --    3.93269   4.04696   4.22966   4.22971   4.52490
 Alpha virt. eigenvalues --    4.52490   4.75959   4.82827   4.82830   5.38949
 Alpha virt. eigenvalues --    5.65760   5.68768   5.68772   5.70419   5.70419
 Alpha virt. eigenvalues --    5.70422   5.79299   5.79303   6.38742   6.38744
 Alpha virt. eigenvalues --    7.49710   8.40850   9.17329   9.17329   9.18141
 Alpha virt. eigenvalues --    9.18141   9.20514   9.20514   9.29992   9.29992
 Alpha virt. eigenvalues --    9.29994   9.29994   9.29995   9.29995   9.29995
 Alpha virt. eigenvalues --    9.41034   9.41034   9.56532   9.58253   9.58255
 Alpha virt. eigenvalues --    9.67599   9.67599   9.69232   9.69235   9.72811
 Alpha virt. eigenvalues --    9.72811   9.77710   9.77710   9.77712   9.77712
 Alpha virt. eigenvalues --    9.77712   9.88787   9.88789  10.01746  10.07790
 Alpha virt. eigenvalues --   10.07791  10.42209  10.55715  10.99742  13.53389
 Alpha virt. eigenvalues --   15.42161
          Condensed to atoms (all electrons):
               1          2          3          4
     1  F   10.000000  -0.000000   0.000000  -0.000000
     2  F   -0.000000   9.764221   0.092359  -0.101565
     3  H    0.000000   0.092359   0.305250   0.092359
     4  F   -0.000000  -0.101565   0.092359   9.764221
 Mulliken charges:
               1
     1  F   -1.000000
     2  F   -0.755015
     3  H    0.510031
     4  F   -0.755015
 Sum of Mulliken charges =  -2.00000
 Mulliken charges with hydrogens summed into heavy atoms:
               1
     1  F   -1.000000
     2  F   -0.244985
     4  F   -0.755015
 Electronic spatial extent (au):  <R**2>=           6620.3322
 Charge=             -2.0000 electrons
 Dipole moment (field-independent basis, Debye):
    X=              0.0000    Y=              0.0000    Z=            -28.2956  Tot=             28.2956
 Quadrupole moment (field-independent basis, Debye-Ang):
   XX=            -19.7369   YY=            -28.8636   ZZ=           -757.6674
   XY=             -0.0000   XZ=             -0.0000   YZ=              0.0000
 Traceless Quadrupole moment (field-independent basis, Debye-Ang):
   XX=            249.0190   YY=            239.8924   ZZ=           -488.9114
   XY=             -0.0000   XZ=             -0.0000   YZ=              0.0000
 Octapole moment (field-independent basis, Debye-Ang**2):
  XXX=              0.0000  YYY=              0.0000  ZZZ=          -6070.5257  XYY=              0.0000
  XXY=             -0.0000  XXZ=            -13.5972  XZZ=              0.0000  YZZ=             -0.0000
  YYZ=             34.8420  XYZ=              0.0000
 Hexadecapole moment (field-independent basis, Debye-Ang**3):
 XXXX=            -18.1940 YYYY=           -122.5847 ZZZZ=         -86934.2123 XXXY=             -0.0000
 XXXZ=             -0.0000 YYYX=             -0.0000 YYYZ=              0.0000 ZZZX=             -0.0000
 ZZZY=              0.0000 XXYY=            -22.0911 XXZZ=          -1258.5695 YYZZ=          -1531.6798
 XXYZ=              0.0000 YYXZ=             -0.0000 ZZXY=             -0.0000
 N-N= 3.265085292690D+01 E-N=-7.953991476582D+02  KE= 2.988725147287D+02
 Symmetry A1   KE= 1.805237053677D+02
 Symmetry A2   KE= 6.156710590107D+00
 Symmetry B1   KE= 1.146177809972D+01
 Symmetry B2   KE= 1.007303206712D+02
 1\1\GINC-HELIOS\SP\RCCSD-FC\Aug-CC-pVTZ\F3H1(2-)\POHL\07-May-2025\0\\#
  CCSD/aug-cc-pVTZ SP\\Single-point energy of X- + Y- at fixed distance
  R\\-2,1\F,0,0.,0.,16.5\F,0,-1.139,0.,0.\H,0,0.,0.,0.\F,0,1.139,0.,0.\
 \Version=EM64L-G16RevB.01\State=1-A1\HF=-298.9963199\MP2=-299.8716881\
 MP3=-299.8482791\MP4D=-299.8641493\MP4DQ=-299.8540736\MP4SDQ=-299.8657
 553\CCSD=-299.8596412\RMSD=5.187e-09\PG=C02V [C2(H1F1),SGV(F2)]\\@


 ALMOST ALL THE CHEMICAL PROCESSES WHICH OCCUR IN NATURE,
 WHETHER IN ANIMAL OR VEGETABLE ORGANISMS,
 OR IN THE NON-LIVING SURFACE OF THE EARTH ... 
 TAKE PLACE BETWEEN SUBSTANCES IN SOLUTION

                                    -- W. OSTWALD, 1890
 Job cpu time:       0 days  0 hours  4 minutes 40.7 seconds.
 Elapsed time:       0 days  0 hours  0 minutes 28.3 seconds.
 File lengths (MBytes):  RWF=    581 Int=      0 D2E=      0 Chk=      3 Scr=      1
 Normal termination of Gaussian 16 at Wed May  7 12:36:39 2025.
