 Entering Gaussian System, Link 0=g16
 Initial command:
 /opt/g16/l1.exe "/home/pohl/scratches/g16/Gau-1292107.inp" -scrdir="/home/pohl/scratches/g16/"
 Entering Link 1 = /opt/g16/l1.exe PID=   1292109.
  
 Copyright (c) 1988-2017, Gaussian, Inc.  All Rights Reserved.
  
 This is part of the Gaussian(R) 16 program.  It is based on
 the Gaussian(R) 09 system (copyright 2009, Gaussian, Inc.),
 the Gaussian(R) 03 system (copyright 2003, Gaussian, Inc.),
 the Gaussian(R) 98 system (copyright 1998, Gaussian, Inc.),
 the Gaussian(R) 94 system (copyright 1995, Gaussian, Inc.),
 the Gaussian 92(TM) system (copyright 1992, Gaussian, Inc.),
 the Gaussian 90(TM) system (copyright 1990, Gaussian, Inc.),
 the Gaussian 88(TM) system (copyright 1988, Gaussian, Inc.),
 the Gaussian 86(TM) system (copyright 1986, Carnegie Mellon
 University), and the Gaussian 82(TM) system (copyright 1983,
 Carnegie Mellon University). Gaussian is a federally registered
 trademark of Gaussian, Inc.
  
 This software contains proprietary and confidential information,
 including trade secrets, belonging to Gaussian, Inc.
  
 This software is provided under written license and may be
 used, copied, transmitted, or stored only in accord with that
 written license.
  
 The following legend is applicable only to US Government
 contracts under FAR:
  
                    RESTRICTED RIGHTS LEGEND
  
 Use, reproduction and disclosure by the US Government is
 subject to restrictions as set forth in subparagraphs (a)
 and (c) of the Commercial Computer Software - Restricted
 Rights clause in FAR 52.227-19.
  
 Gaussian, Inc.
 340 Quinnipiac St., Bldg. 40, Wallingford CT 06492
  
  
 ---------------------------------------------------------------
 Warning -- This program may not be used in any manner that
 competes with the business of Gaussian, Inc. or will provide
 assistance to any competitor of Gaussian, Inc.  The licensee
 of this program is prohibited from giving any competitor of
 Gaussian, Inc. access to this program.  By using this program,
 the user acknowledges that Gaussian, Inc. is engaged in the
 business of creating and licensing software in the field of
 computational chemistry and represents and warrants to the
 licensee that it is not a competitor of Gaussian, Inc. and that
 it will not use this program in any manner prohibited above.
 ---------------------------------------------------------------
  

 Cite this work as:
 Gaussian 16, Revision B.01,
 M. J. Frisch, G. W. Trucks, H. B. Schlegel, G. E. Scuseria, 
 M. A. Robb, J. R. Cheeseman, G. Scalmani, V. Barone, 
 G. A. Petersson, H. Nakatsuji, X. Li, M. Caricato, A. V. Marenich, 
 J. Bloino, B. G. Janesko, R. Gomperts, B. Mennucci, H. P. Hratchian, 
 J. V. Ortiz, A. F. Izmaylov, J. L. Sonnenberg, D. Williams-Young, 
 F. Ding, F. Lipparini, F. Egidi, J. Goings, B. Peng, A. Petrone, 
 T. Henderson, D. Ranasinghe, V. G. Zakrzewski, J. Gao, N. Rega, 
 G. Zheng, W. Liang, M. Hada, M. Ehara, K. Toyota, R. Fukuda, 
 J. Hasegawa, M. Ishida, T. Nakajima, Y. Honda, O. Kitao, H. Nakai, 
 T. Vreven, K. Throssell, J. A. Montgomery, Jr., J. E. Peralta, 
 F. Ogliaro, M. J. Bearpark, J. J. Heyd, E. N. Brothers, K. N. Kudin, 
 V. N. Staroverov, T. A. Keith, R. Kobayashi, J. Normand, 
 K. Raghavachari, A. P. Rendell, J. C. Burant, S. S. Iyengar, 
 J. Tomasi, M. Cossi, J. M. Millam, M. Klene, C. Adamo, R. Cammi, 
 J. W. Ochterski, R. L. Martin, K. Morokuma, O. Farkas, 
 J. B. Foresman, and D. J. Fox, Gaussian, Inc., Wallingford CT, 2016.
 
 ******************************************
 Gaussian 16:  EM64L-G16RevB.01 20-Dec-2017
                 7-May-2025 
 ******************************************
 %mem=30GB
 %nprocshared=10
 Will use up to   10 processors via shared memory.
 ---------------------
 # CCSD/aug-cc-pVTZ SP
 ---------------------
 1/38=1,172=1/1;
 2/12=2,17=6,18=5,40=1/2;
 3/5=16,6=1,7=10,11=9,25=1,30=1/1,2,3;
 4//1;
 5/5=2,38=5/2;
 8/6=4,9=120000,10=1/1,4;
 9/5=7/13;
 6/7=2,8=2,9=2,10=2/1;
 99/5=1,9=1/99;
 --------------------------------------------------
 Single-point energy of X- + Y- at fixed distance R
 --------------------------------------------------
 Symbolic Z-matrix:
 Charge = -2 Multiplicity = 1
 F                     0.        0.        17.5 
 F                    -1.139     0.        0. 
 H                     0.        0.        0. 
 F                     1.139     0.        0. 
 
                          Input orientation:                          
 ---------------------------------------------------------------------
 Center     Atomic      Atomic             Coordinates (Angstroms)
 Number     Number       Type             X           Y           Z
 ---------------------------------------------------------------------
      1          9           0        0.000000    0.000000   17.500000
      2          9           0       -1.139000    0.000000    0.000000
      3          1           0        0.000000    0.000000    0.000000
      4          9           0        1.139000    0.000000    0.000000
 ---------------------------------------------------------------------
                    Distance matrix (angstroms):
                    1          2          3          4
     1  F    0.000000
     2  F   17.537027   0.000000
     3  H   17.500000   1.139000   0.000000
     4  F   17.537027   2.278000   1.139000   0.000000
 Stoichiometry    F3H(2-)
 Framework group  C2V[C2(HF),SGV(F2)]
 Deg. of freedom     3
 Full point group                 C2V     NOp   4
 Largest Abelian subgroup         C2V     NOp   4
 Largest concise Abelian subgroup C2      NOp   2
                         Standard orientation:                         
 ---------------------------------------------------------------------
 Center     Atomic      Atomic             Coordinates (Angstroms)
 Number     Number       Type             X           Y           Z
 ---------------------------------------------------------------------
      1          9           0       -0.000000    0.000000   11.875000
      2          9           0        0.000000    1.139000   -5.625000
      3          1           0        0.000000    0.000000   -5.625000
      4          9           0       -0.000000   -1.139000   -5.625000
 ---------------------------------------------------------------------
 Rotational constants (GHZ):          10.2523318           0.1291691           0.1275619
 Standard basis: Aug-CC-pVTZ (5D, 7F)
 There are    74 symmetry adapted cartesian basis functions of A1  symmetry.
 There are    25 symmetry adapted cartesian basis functions of A2  symmetry.
 There are    36 symmetry adapted cartesian basis functions of B1  symmetry.
 There are    55 symmetry adapted cartesian basis functions of B2  symmetry.
 There are    60 symmetry adapted basis functions of A1  symmetry.
 There are    23 symmetry adapted basis functions of A2  symmetry.
 There are    32 symmetry adapted basis functions of B1  symmetry.
 There are    46 symmetry adapted basis functions of B2  symmetry.
   161 basis functions,   243 primitive gaussians,   190 cartesian basis functions
    15 alpha electrons       15 beta electrons
       nuclear repulsion energy        32.3394619852 Hartrees.
 NAtoms=    4 NActive=    4 NUniq=    3 SFac= 1.78D+00 NAtFMM=   60 NAOKFM=F Big=F
 Integral buffers will be    131072 words long.
 Raffenetti 1 integral format.
 Two-electron integral symmetry is turned on.
 One-electron integrals computed using PRISM.
 NBasis=   161 RedAO= T EigKep=  2.93D-04  NBF=    60    23    32    46
 NBsUse=   161 1.00D-06 EigRej= -1.00D+00 NBFU=    60    23    32    46
 ExpMin= 2.53D-02 ExpMax= 1.95D+04 ExpMxC= 6.65D+02 IAcc=3 IRadAn=         5 AccDes= 0.00D+00
 Harris functional with IExCor=  205 and IRadAn=       5 diagonalized for initial guess.
 HarFok:  IExCor=  205 AccDes= 0.00D+00 IRadAn=         5 IDoV= 1 UseB2=F ITyADJ=14
 ICtDFT=  3500011 ScaDFX=  1.000000  1.000000  1.000000  1.000000
 FoFCou: FMM=F IPFlag=           0 FMFlag=      100000 FMFlg1=           0
         NFxFlg=           0 DoJE=T BraDBF=F KetDBF=T FulRan=T
         wScrn=  0.000000 ICntrl=       500 IOpCl=  0 I1Cent=   200000004 NGrid=           0
         NMat0=    1 NMatS0=      1 NMatT0=    0 NMatD0=    1 NMtDS0=    0 NMtDT0=    0
 Petite list used in FoFCou.
 Initial guess orbital symmetries:
       Occupied  (A1) (B2) (A1) (A1) (B2) (A1) (A1) (B1) (A1) (B2)
                 (A2) (B2) (A1) (B1) (B2)
       Virtual   (A1) (B2) (A1) (B1) (A1) (A1) (A1) (B1) (B2) (A1)
                 (A2) (B2) (B2) (B1) (A1) (A1) (A1) (B2) (B1) (A1)
                 (A2) (A1) (B2) (B1) (A1) (B2) (A2) (A1) (B1) (A2)
                 (B2) (A1) (B1) (A1) (A1) (B1) (B2) (A2) (B2) (B2)
                 (A1) (A1) (B1) (B2) (A1) (A1) (B1) (A1) (B2) (A2)
                 (B2) (B2) (A1) (A1) (B1) (A2) (B2) (B2) (A2) (A2)
                 (A1) (B2) (B1) (A1) (A1) (B1) (B1) (A1) (A2) (B2)
                 (A1) (B1) (B2) (A2) (B1) (B2) (A1) (A2) (B2) (A1)
                 (B1) (A1) (B2) (A2) (B2) (A1) (B2) (B1) (A1) (B1)
                 (A1) (A1) (A1) (B1) (A1) (A1) (B1) (B2) (B1) (A1)
                 (B2) (A2) (B2) (A2) (B2) (B2) (A1) (B1) (A1) (A2)
                 (B2) (A1) (B1) (B2) (A2) (B1) (B2) (A1) (A2) (B2)
                 (B1) (A1) (B2) (A2) (B2) (B1) (A1) (A1) (A2) (B2)
                 (B2) (A2) (A1) (B1) (B1) (A1) (B1) (A1) (A1) (A2)
                 (B2) (A1) (B2) (A1) (B2) (A1)
 The electronic state of the initial guess is 1-A1.
 Keep R1 ints in memory in symmetry-blocked form, NReq=106592091.
 Requested convergence on RMS density matrix=1.00D-08 within 128 cycles.
 Requested convergence on MAX density matrix=1.00D-06.
 Requested convergence on             energy=1.00D-06.
 No special actions if energy rises.
 SCF Done:  E(RHF) =  -298.998132569     A.U. after   10 cycles
            NFock= 10  Conv=0.52D-08     -V/T= 2.0004
 ExpMin= 2.53D-02 ExpMax= 1.95D+04 ExpMxC= 6.65D+02 IAcc=3 IRadAn=         5 AccDes= 0.00D+00
 HarFok:  IExCor=  205 AccDes= 0.00D+00 IRadAn=         5 IDoV=-2 UseB2=F ITyADJ=14
 ICtDFT= 12500011 ScaDFX=  1.000000  1.000000  1.000000  1.000000
 Range of M.O.s used for correlation:     4   161
 NBasis=   161 NAE=    15 NBE=    15 NFC=     3 NFV=     0
 NROrb=    158 NOA=    12 NOB=    12 NVA=   146 NVB=   146

 **** Warning!!: The largest alpha MO coefficient is  0.21676356D+02

 Semi-Direct transformation.
 ModeAB=           4 MOrb=            12 LenV=    4025789637
 LASXX=      5679395 LTotXX=     5679395 LenRXX=    11479218
 LTotAB=     5799823 MaxLAS=    12978120 LenRXY=           0
 NonZer=    17158613 LenScr=    26512384 LnRSAI=    12978120
 LnScr1=    20234240 LExtra=           0 Total=     71203962
 MaxDsk=          -1 SrtSym=           T ITran=            4
 JobTyp=0 Pass  1:  I=   1 to  12.
 (rs|ai) integrals will be sorted in core.
 Spin components of T(2) and E(2):
     alpha-alpha T2 =       0.2526457952D-01 E2=     -0.1154941438D+00
     alpha-beta  T2 =       0.1294474816D+00 E2=     -0.6443800391D+00
     beta-beta   T2 =       0.2526457952D-01 E2=     -0.1154941438D+00
 ANorm=    0.1086267297D+01
 E2 =    -0.8753683267D+00 EUMP2 =    -0.29987350089615D+03
 Keep R2 and R3 ints in memory in symmetry-blocked form, NReq=106598451.
 CIDS: In Core Option IDoMem=           1.
 Iterations=  50 Convergence= 0.100D-06
 Produce multiple copies of IABC intergrals
 Iteration Nr.   1
 **********************
 DD1Dir will call FoFMem   1 times, MxPair=       156
 NAB=    78 NAA=     0 NBB=     0.
 MP4(R+Q)=  0.10075808D-01
 E3=        0.23408897D-01        EUMP3=      -0.29985009200D+03
 E4(DQ)=   -0.57943765D-02        UMP4(DQ)=   -0.29985588638D+03
 E4(SDQ)=  -0.17476071D-01        UMP4(SDQ)=  -0.29986756807D+03
 DE(Corr)= -0.84100638     E(Corr)=     -299.83913895    
 NORM(A)=   0.10803542D+01
 Iteration Nr.   2
 **********************
 DD1Dir will call FoFMem   1 times, MxPair=       156
 NAB=    78 NAA=     0 NBB=     0.
 DE(Corr)= -0.86412043     E(CORR)=     -299.86225300     Delta=-2.31D-02
 NORM(A)=   0.10859311D+01
 Iteration Nr.   3
 **********************
 DD1Dir will call FoFMem   1 times, MxPair=       156
 NAB=    78 NAA=     0 NBB=     0.
 DE(Corr)= -0.86122856     E(CORR)=     -299.85936113     Delta= 2.89D-03
 NORM(A)=   0.10881100D+01
 Iteration Nr.   4
 **********************
 DD1Dir will call FoFMem   1 times, MxPair=       156
 NAB=    78 NAA=     0 NBB=     0.
 DE(Corr)= -0.86312266     E(CORR)=     -299.86125523     Delta=-1.89D-03
 NORM(A)=   0.10889518D+01
 Iteration Nr.   5
 **********************
 DD1Dir will call FoFMem   1 times, MxPair=       156
 NAB=    78 NAA=     0 NBB=     0.
 DE(Corr)= -0.86331522     E(CORR)=     -299.86144779     Delta=-1.93D-04
 NORM(A)=   0.10891363D+01
 Iteration Nr.   6
 **********************
 DD1Dir will call FoFMem   1 times, MxPair=       156
 NAB=    78 NAA=     0 NBB=     0.
 DE(Corr)= -0.86332322     E(CORR)=     -299.86145579     Delta=-8.00D-06
 NORM(A)=   0.10891901D+01
 Iteration Nr.   7
 **********************
 DD1Dir will call FoFMem   1 times, MxPair=       156
 NAB=    78 NAA=     0 NBB=     0.
 DE(Corr)= -0.86332114     E(CORR)=     -299.86145371     Delta= 2.08D-06
 NORM(A)=   0.10891946D+01
 Iteration Nr.   8
 **********************
 DD1Dir will call FoFMem   1 times, MxPair=       156
 NAB=    78 NAA=     0 NBB=     0.
 DE(Corr)= -0.86332255     E(CORR)=     -299.86145512     Delta=-1.41D-06
 NORM(A)=   0.10891971D+01
 Iteration Nr.   9
 **********************
 DD1Dir will call FoFMem   1 times, MxPair=       156
 NAB=    78 NAA=     0 NBB=     0.
 DE(Corr)= -0.86332092     E(CORR)=     -299.86145349     Delta= 1.63D-06
 NORM(A)=   0.10891977D+01
 Iteration Nr.  10
 **********************
 DD1Dir will call FoFMem   1 times, MxPair=       156
 NAB=    78 NAA=     0 NBB=     0.
 DE(Corr)= -0.86332162     E(CORR)=     -299.86145419     Delta=-6.98D-07
 NORM(A)=   0.10891978D+01
 Iteration Nr.  11
 **********************
 DD1Dir will call FoFMem   1 times, MxPair=       156
 NAB=    78 NAA=     0 NBB=     0.
 DE(Corr)= -0.86332137     E(CORR)=     -299.86145394     Delta= 2.45D-07
 NORM(A)=   0.10891978D+01
 Iteration Nr.  12
 **********************
 DD1Dir will call FoFMem   1 times, MxPair=       156
 NAB=    78 NAA=     0 NBB=     0.
 DE(Corr)= -0.86332144     E(CORR)=     -299.86145401     Delta=-6.97D-08
 NORM(A)=   0.10891978D+01
 Wavefunction amplitudes converged. E(Corr)=     -299.86145401    
 Largest amplitude= 3.68D-02
 Discarding MO integrals.

 **********************************************************************

            Population analysis using the SCF Density.

 **********************************************************************

 Orbital symmetries:
       Occupied  (B2) (A1) (A1) (A1) (B2) (A1) (A1) (B1) (A1) (A2)
                 (B2) (B2) (A1) (B2) (B1)
       Virtual   (A1) (B2) (B1) (A1) (A1) (A2) (B2) (B1) (B2) (A1)
                 (A1) (A1) (B2) (B1) (A1) (A1) (B2) (A1) (B1) (A1)
                 (A2) (B2) (B1) (A1) (A1) (A2) (B1) (B2) (A1) (A1)
                 (A2) (B2) (B1) (A1) (A2) (B2) (B2) (B1) (A1) (A1)
                 (B1) (B2) (A1) (B2) (A1) (B1) (A1) (A1) (A2) (B2)
                 (B2) (B2) (A1) (B1) (A1) (A2) (B2) (A2) (B2) (B1)
                 (A1) (A2) (B2) (B1) (A1) (A1) (A2) (B1) (B2) (A1)
                 (A2) (B2) (B1) (B2) (A1) (A2) (B1) (B2) (A1) (A1)
                 (B1) (A1) (B2) (A2) (B2) (A1) (B2) (B1) (A1) (B1)
                 (A1) (A1) (B1) (A1) (A1) (B2) (B1) (A1) (B1) (B2)
                 (A1) (A2) (B2) (A2) (B2) (B2) (A1) (B1) (A1) (A2)
                 (B2) (A2) (B2) (B1) (B2) (A1) (A2) (B1) (B2) (A1)
                 (B1) (A1) (B2) (A2) (B2) (A2) (B2) (B1) (A1) (B1)
                 (A1) (A1) (A2) (B1) (B2) (A1) (B1) (A1) (A1) (A2)
                 (B2) (A1) (B2) (A1) (B2) (A1)
 The electronic state is 1-A1.
 Alpha  occ. eigenvalues --  -25.92723 -25.92720 -25.80355  -1.22961  -1.18232
 Alpha  occ. eigenvalues --   -1.04588  -0.43874  -0.30091  -0.30090  -0.27440
 Alpha  occ. eigenvalues --   -0.27439  -0.25350  -0.15081  -0.15081  -0.15081
 Alpha virt. eigenvalues --    0.22570   0.33545   0.38570   0.38598   0.38896
 Alpha virt. eigenvalues --    0.46411   0.46444   0.47256   0.47256   0.47282
 Alpha virt. eigenvalues --    0.50771   0.51584   0.57653   0.65130   0.65153
 Alpha virt. eigenvalues --    0.75020   0.93468   0.94939   1.02955   1.02955
 Alpha virt. eigenvalues --    1.22988   1.22988   1.23916   1.23927   1.25857
 Alpha virt. eigenvalues --    1.25857   1.25864   1.25864   1.25867   1.30400
 Alpha virt. eigenvalues --    1.34398   1.34408   1.45657   1.45666   1.48667
 Alpha virt. eigenvalues --    1.48676   1.48968   1.50180   1.50180   1.50820
 Alpha virt. eigenvalues --    1.55611   1.55611   1.55620   1.60625   1.72289
 Alpha virt. eigenvalues --    2.03285   2.03294   2.08127   2.28431   2.28442
 Alpha virt. eigenvalues --    2.38420   2.87774   2.96716   3.13433   3.13433
 Alpha virt. eigenvalues --    3.15441   3.15445   3.18836   3.18836   3.24425
 Alpha virt. eigenvalues --    3.24425   3.25776   3.25776   3.29403   3.29407
 Alpha virt. eigenvalues --    3.31345   3.31345   3.31348   3.31348   3.31349
 Alpha virt. eigenvalues --    3.33912   3.33912   3.36183   3.36183   3.36186
 Alpha virt. eigenvalues --    3.36186   3.36187   3.36187   3.36188   3.43061
 Alpha virt. eigenvalues --    3.62222   3.62222   3.86706   3.86881   3.86885
 Alpha virt. eigenvalues --    3.93088   4.04515   4.22785   4.22789   4.52308
 Alpha virt. eigenvalues --    4.52308   4.75777   4.82645   4.82648   5.38767
 Alpha virt. eigenvalues --    5.65578   5.68587   5.68590   5.70238   5.70238
 Alpha virt. eigenvalues --    5.70240   5.79118   5.79121   6.38560   6.38562
 Alpha virt. eigenvalues --    7.49528   8.40669   9.17148   9.17148   9.17959
 Alpha virt. eigenvalues --    9.17959   9.20332   9.20332   9.29811   9.29811
 Alpha virt. eigenvalues --    9.29813   9.29813   9.29814   9.29814   9.29814
 Alpha virt. eigenvalues --    9.40852   9.40852   9.56350   9.58072   9.58074
 Alpha virt. eigenvalues --    9.67417   9.67417   9.69051   9.69053   9.72629
 Alpha virt. eigenvalues --    9.72629   9.77529   9.77529   9.77530   9.77530
 Alpha virt. eigenvalues --    9.77531   9.88605   9.88607  10.01565  10.07608
 Alpha virt. eigenvalues --   10.07610  10.42027  10.55534  10.99561  13.53207
 Alpha virt. eigenvalues --   15.41980
          Condensed to atoms (all electrons):
               1          2          3          4
     1  F   10.000000  -0.000000   0.000000  -0.000000
     2  F   -0.000000   9.764190   0.092333  -0.101516
     3  H    0.000000   0.092333   0.305322   0.092333
     4  F   -0.000000  -0.101516   0.092333   9.764190
 Mulliken charges:
               1
     1  F   -1.000000
     2  F   -0.755007
     3  H    0.510013
     4  F   -0.755007
 Sum of Mulliken charges =  -2.00000
 Mulliken charges with hydrogens summed into heavy atoms:
               1
     1  F   -1.000000
     2  F   -0.244993
     4  F   -0.755007
 Electronic spatial extent (au):  <R**2>=           7430.2601
 Charge=             -2.0000 electrons
 Dipole moment (field-independent basis, Debye):
    X=              0.0000    Y=             -0.0000    Z=            -30.0121  Tot=             30.0121
 Quadrupole moment (field-independent basis, Debye-Ang):
   XX=            -19.7367   YY=            -28.8627   ZZ=           -849.6981
   XY=             -0.0000   XZ=             -0.0000   YZ=              0.0000
 Traceless Quadrupole moment (field-independent basis, Debye-Ang):
   XX=            279.6958   YY=            270.5698   ZZ=           -550.2656
   XY=             -0.0000   XZ=             -0.0000   YZ=              0.0000
 Octapole moment (field-independent basis, Debye-Ang**2):
  XXX=              0.0000  YYY=             -0.0000  ZZZ=          -7236.2283  XYY=              0.0000
  XXY=              0.0000  XXZ=            -14.4216  XZZ=              0.0000  YZZ=              0.0000
  YYZ=             36.9435  XYZ=              0.0000
 Hexadecapole moment (field-independent basis, Debye-Ang**3):
 XXXX=            -18.1932 YYYY=           -122.5792 ZZZZ=        -108918.8281 XXXY=             -0.0000
 XXXZ=             -0.0000 YYYX=             -0.0000 YYYZ=             -0.0000 ZZZX=             -0.0000
 ZZZY=              0.0000 XXYY=            -22.0904 XXZZ=          -1414.9093 YYZZ=          -1720.0370
 XXYZ=             -0.0000 YYXZ=             -0.0000 ZZXY=             -0.0000
 N-N= 3.233946198520D+01 E-N=-7.947255613740D+02  KE= 2.988725249034D+02
 Symmetry A1   KE= 1.805235383808D+02
 Symmetry A2   KE= 6.156746436573D+00
 Symmetry B1   KE= 1.146185729251D+01
 Symmetry B2   KE= 1.007303827935D+02
 1\1\GINC-HELIOS\SP\RCCSD-FC\Aug-CC-pVTZ\F3H1(2-)\POHL\07-May-2025\0\\#
  CCSD/aug-cc-pVTZ SP\\Single-point energy of X- + Y- at fixed distance
  R\\-2,1\F,0,0.,0.,17.5\F,0,-1.139,0.,0.\H,0,0.,0.,0.\F,0,1.139,0.,0.\
 \Version=EM64L-G16RevB.01\State=1-A1\HF=-298.9981326\MP2=-299.8735009\
 MP3=-299.850092\MP4D=-299.8659622\MP4DQ=-299.8558864\MP4SDQ=-299.86756
 81\CCSD=-299.861454\RMSD=5.177e-09\PG=C02V [C2(H1F1),SGV(F2)]\\@


 ...THOSE SCIENCES ARE VAIN AND FULL OF ERRORS WHICH 
 ARE NOT BORN FROM EXPERIMENT, THE MOTHER OF CERTAINTY...

                          -- LEONARDO DA VINCI, 1452-1519
 Job cpu time:       0 days  0 hours  4 minutes 24.2 seconds.
 Elapsed time:       0 days  0 hours  0 minutes 26.6 seconds.
 File lengths (MBytes):  RWF=    581 Int=      0 D2E=      0 Chk=      3 Scr=      1
 Normal termination of Gaussian 16 at Wed May  7 12:37:34 2025.
