 Entering Gaussian System, Link 0=g16
 Initial command:
 /opt/g16/l1.exe "/home/pohl/scratches/g16/Gau-1292257.inp" -scrdir="/home/pohl/scratches/g16/"
 Entering Link 1 = /opt/g16/l1.exe PID=   1292259.
  
 Copyright (c) 1988-2017, Gaussian, Inc.  All Rights Reserved.
  
 This is part of the Gaussian(R) 16 program.  It is based on
 the Gaussian(R) 09 system (copyright 2009, Gaussian, Inc.),
 the Gaussian(R) 03 system (copyright 2003, Gaussian, Inc.),
 the Gaussian(R) 98 system (copyright 1998, Gaussian, Inc.),
 the Gaussian(R) 94 system (copyright 1995, Gaussian, Inc.),
 the Gaussian 92(TM) system (copyright 1992, Gaussian, Inc.),
 the Gaussian 90(TM) system (copyright 1990, Gaussian, Inc.),
 the Gaussian 88(TM) system (copyright 1988, Gaussian, Inc.),
 the Gaussian 86(TM) system (copyright 1986, Carnegie Mellon
 University), and the Gaussian 82(TM) system (copyright 1983,
 Carnegie Mellon University). Gaussian is a federally registered
 trademark of Gaussian, Inc.
  
 This software contains proprietary and confidential information,
 including trade secrets, belonging to Gaussian, Inc.
  
 This software is provided under written license and may be
 used, copied, transmitted, or stored only in accord with that
 written license.
  
 The following legend is applicable only to US Government
 contracts under FAR:
  
                    RESTRICTED RIGHTS LEGEND
  
 Use, reproduction and disclosure by the US Government is
 subject to restrictions as set forth in subparagraphs (a)
 and (c) of the Commercial Computer Software - Restricted
 Rights clause in FAR 52.227-19.
  
 Gaussian, Inc.
 340 Quinnipiac St., Bldg. 40, Wallingford CT 06492
  
  
 ---------------------------------------------------------------
 Warning -- This program may not be used in any manner that
 competes with the business of Gaussian, Inc. or will provide
 assistance to any competitor of Gaussian, Inc.  The licensee
 of this program is prohibited from giving any competitor of
 Gaussian, Inc. access to this program.  By using this program,
 the user acknowledges that Gaussian, Inc. is engaged in the
 business of creating and licensing software in the field of
 computational chemistry and represents and warrants to the
 licensee that it is not a competitor of Gaussian, Inc. and that
 it will not use this program in any manner prohibited above.
 ---------------------------------------------------------------
  

 Cite this work as:
 Gaussian 16, Revision B.01,
 M. J. Frisch, G. W. Trucks, H. B. Schlegel, G. E. Scuseria, 
 M. A. Robb, J. R. Cheeseman, G. Scalmani, V. Barone, 
 G. A. Petersson, H. Nakatsuji, X. Li, M. Caricato, A. V. Marenich, 
 J. Bloino, B. G. Janesko, R. Gomperts, B. Mennucci, H. P. Hratchian, 
 J. V. Ortiz, A. F. Izmaylov, J. L. Sonnenberg, D. Williams-Young, 
 F. Ding, F. Lipparini, F. Egidi, J. Goings, B. Peng, A. Petrone, 
 T. Henderson, D. Ranasinghe, V. G. Zakrzewski, J. Gao, N. Rega, 
 G. Zheng, W. Liang, M. Hada, M. Ehara, K. Toyota, R. Fukuda, 
 J. Hasegawa, M. Ishida, T. Nakajima, Y. Honda, O. Kitao, H. Nakai, 
 T. Vreven, K. Throssell, J. A. Montgomery, Jr., J. E. Peralta, 
 F. Ogliaro, M. J. Bearpark, J. J. Heyd, E. N. Brothers, K. N. Kudin, 
 V. N. Staroverov, T. A. Keith, R. Kobayashi, J. Normand, 
 K. Raghavachari, A. P. Rendell, J. C. Burant, S. S. Iyengar, 
 J. Tomasi, M. Cossi, J. M. Millam, M. Klene, C. Adamo, R. Cammi, 
 J. W. Ochterski, R. L. Martin, K. Morokuma, O. Farkas, 
 J. B. Foresman, and D. J. Fox, Gaussian, Inc., Wallingford CT, 2016.
 
 ******************************************
 Gaussian 16:  EM64L-G16RevB.01 20-Dec-2017
                 7-May-2025 
 ******************************************
 %mem=30GB
 %nprocshared=10
 Will use up to   10 processors via shared memory.
 ---------------------
 # CCSD/aug-cc-pVTZ SP
 ---------------------
 1/38=1,172=1/1;
 2/12=2,17=6,18=5,40=1/2;
 3/5=16,6=1,7=10,11=9,25=1,30=1/1,2,3;
 4//1;
 5/5=2,38=5/2;
 8/6=4,9=120000,10=1/1,4;
 9/5=7/13;
 6/7=2,8=2,9=2,10=2/1;
 99/5=1,9=1/99;
 --------------------------------------------------
 Single-point energy of X- + Y- at fixed distance R
 --------------------------------------------------
 Symbolic Z-matrix:
 Charge = -2 Multiplicity = 1
 F                     0.        0.        18. 
 F                    -1.139     0.        0. 
 H                     0.        0.        0. 
 F                     1.139     0.        0. 
 
                          Input orientation:                          
 ---------------------------------------------------------------------
 Center     Atomic      Atomic             Coordinates (Angstroms)
 Number     Number       Type             X           Y           Z
 ---------------------------------------------------------------------
      1          9           0        0.000000    0.000000   18.000000
      2          9           0       -1.139000    0.000000    0.000000
      3          1           0        0.000000    0.000000    0.000000
      4          9           0        1.139000    0.000000    0.000000
 ---------------------------------------------------------------------
                    Distance matrix (angstroms):
                    1          2          3          4
     1  F    0.000000
     2  F   18.036001   0.000000
     3  H   18.000000   1.139000   0.000000
     4  F   18.036001   2.278000   1.139000   0.000000
 Stoichiometry    F3H(2-)
 Framework group  C2V[C2(HF),SGV(F2)]
 Deg. of freedom     3
 Full point group                 C2V     NOp   4
 Largest Abelian subgroup         C2V     NOp   4
 Largest concise Abelian subgroup C2      NOp   2
                         Standard orientation:                         
 ---------------------------------------------------------------------
 Center     Atomic      Atomic             Coordinates (Angstroms)
 Number     Number       Type             X           Y           Z
 ---------------------------------------------------------------------
      1          9           0       -0.000000    0.000000   12.214286
      2          9           0        0.000000    1.139000   -5.785714
      3          1           0        0.000000    0.000000   -5.785714
      4          9           0       -0.000000   -1.139000   -5.785714
 ---------------------------------------------------------------------
 Rotational constants (GHZ):          10.2523318           0.1220927           0.1206558
 Standard basis: Aug-CC-pVTZ (5D, 7F)
 There are    74 symmetry adapted cartesian basis functions of A1  symmetry.
 There are    25 symmetry adapted cartesian basis functions of A2  symmetry.
 There are    36 symmetry adapted cartesian basis functions of B1  symmetry.
 There are    55 symmetry adapted cartesian basis functions of B2  symmetry.
 There are    60 symmetry adapted basis functions of A1  symmetry.
 There are    23 symmetry adapted basis functions of A2  symmetry.
 There are    32 symmetry adapted basis functions of B1  symmetry.
 There are    46 symmetry adapted basis functions of B2  symmetry.
   161 basis functions,   243 primitive gaussians,   190 cartesian basis functions
    15 alpha electrons       15 beta electrons
       nuclear repulsion energy        32.1966647107 Hartrees.
 NAtoms=    4 NActive=    4 NUniq=    3 SFac= 1.78D+00 NAtFMM=   60 NAOKFM=F Big=F
 Integral buffers will be    131072 words long.
 Raffenetti 1 integral format.
 Two-electron integral symmetry is turned on.
 One-electron integrals computed using PRISM.
 NBasis=   161 RedAO= T EigKep=  2.93D-04  NBF=    60    23    32    46
 NBsUse=   161 1.00D-06 EigRej= -1.00D+00 NBFU=    60    23    32    46
 ExpMin= 2.53D-02 ExpMax= 1.95D+04 ExpMxC= 6.65D+02 IAcc=3 IRadAn=         5 AccDes= 0.00D+00
 Harris functional with IExCor=  205 and IRadAn=       5 diagonalized for initial guess.
 HarFok:  IExCor=  205 AccDes= 0.00D+00 IRadAn=         5 IDoV= 1 UseB2=F ITyADJ=14
 ICtDFT=  3500011 ScaDFX=  1.000000  1.000000  1.000000  1.000000
 FoFCou: FMM=F IPFlag=           0 FMFlag=      100000 FMFlg1=           0
         NFxFlg=           0 DoJE=T BraDBF=F KetDBF=T FulRan=T
         wScrn=  0.000000 ICntrl=       500 IOpCl=  0 I1Cent=   200000004 NGrid=           0
         NMat0=    1 NMatS0=      1 NMatT0=    0 NMatD0=    1 NMtDS0=    0 NMtDT0=    0
 Petite list used in FoFCou.
 Initial guess orbital symmetries:
       Occupied  (A1) (B2) (A1) (A1) (B2) (A1) (A1) (B1) (A1) (B2)
                 (A2) (B2) (B1) (B2) (A1)
       Virtual   (A1) (B2) (A1) (B1) (A1) (A1) (A1) (B1) (B2) (A1)
                 (A2) (B2) (B2) (B1) (A1) (A1) (A1) (B2) (B1) (A1)
                 (A2) (A1) (B1) (B2) (A1) (B2) (A2) (B1) (A1) (A2)
                 (B2) (A1) (B1) (A1) (A1) (B1) (B2) (A2) (B2) (B2)
                 (A1) (A1) (B1) (B2) (A1) (A1) (B1) (A1) (B2) (A2)
                 (B2) (B2) (A1) (A1) (B1) (A2) (B2) (B2) (A2) (A2)
                 (A1) (B1) (B2) (A1) (B1) (A1) (B1) (A1) (A2) (B2)
                 (A1) (B1) (B2) (A2) (B2) (B1) (A1) (A2) (B2) (A1)
                 (B1) (A1) (B2) (A2) (B2) (A1) (B2) (B1) (A1) (B1)
                 (A1) (A1) (B1) (A1) (A1) (A1) (B1) (B2) (B1) (A1)
                 (B2) (A2) (B2) (A2) (B2) (B2) (A1) (A1) (B1) (A2)
                 (B2) (A1) (B1) (B2) (A2) (B2) (B1) (A1) (A2) (B2)
                 (B1) (A1) (B2) (A2) (B1) (B2) (A1) (A1) (A2) (B2)
                 (B2) (A2) (A1) (B1) (B1) (A1) (B1) (A1) (A1) (A2)
                 (B2) (A1) (B2) (A1) (B2) (A1)
 The electronic state of the initial guess is 1-A1.
 Keep R1 ints in memory in symmetry-blocked form, NReq=106592091.
 Requested convergence on RMS density matrix=1.00D-08 within 128 cycles.
 Requested convergence on MAX density matrix=1.00D-06.
 Requested convergence on             energy=1.00D-06.
 No special actions if energy rises.
 SCF Done:  E(RHF) =  -298.998964188     A.U. after   10 cycles
            NFock= 10  Conv=0.52D-08     -V/T= 2.0004
 ExpMin= 2.53D-02 ExpMax= 1.95D+04 ExpMxC= 6.65D+02 IAcc=3 IRadAn=         5 AccDes= 0.00D+00
 HarFok:  IExCor=  205 AccDes= 0.00D+00 IRadAn=         5 IDoV=-2 UseB2=F ITyADJ=14
 ICtDFT= 12500011 ScaDFX=  1.000000  1.000000  1.000000  1.000000
 Range of M.O.s used for correlation:     4   161
 NBasis=   161 NAE=    15 NBE=    15 NFC=     3 NFV=     0
 NROrb=    158 NOA=    12 NOB=    12 NVA=   146 NVB=   146

 **** Warning!!: The largest alpha MO coefficient is  0.21676756D+02

 Semi-Direct transformation.
 ModeAB=           4 MOrb=            12 LenV=    4025789665
 LASXX=      5679395 LTotXX=     5679395 LenRXX=    11479218
 LTotAB=     5799823 MaxLAS=    12978120 LenRXY=           0
 NonZer=    17158613 LenScr=    26512384 LnRSAI=    12978120
 LnScr1=    20234240 LExtra=           0 Total=     71203962
 MaxDsk=          -1 SrtSym=           T ITran=            4
 JobTyp=0 Pass  1:  I=   1 to  12.
 (rs|ai) integrals will be sorted in core.
 Spin components of T(2) and E(2):
     alpha-alpha T2 =       0.2526457331D-01 E2=     -0.1154941531D+00
     alpha-beta  T2 =       0.1294474511D+00 E2=     -0.6443800799D+00
     beta-beta   T2 =       0.2526457331D-01 E2=     -0.1154941531D+00
 ANorm=    0.1086267277D+01
 E2 =    -0.8753683861D+00 EUMP2 =    -0.29987433257442D+03
 Keep R2 and R3 ints in memory in symmetry-blocked form, NReq=106598451.
 CIDS: In Core Option IDoMem=           1.
 Iterations=  50 Convergence= 0.100D-06
 Produce multiple copies of IABC intergrals
 Iteration Nr.   1
 **********************
 DD1Dir will call FoFMem   1 times, MxPair=       156
 NAB=    78 NAA=     0 NBB=     0.
 MP4(R+Q)=  0.10075826D-01
 E3=        0.23408871D-01        EUMP3=      -0.29985092370D+03
 E4(DQ)=   -0.57943516D-02        UMP4(DQ)=   -0.29985671805D+03
 E4(SDQ)=  -0.17476028D-01        UMP4(SDQ)=  -0.29986839973D+03
 DE(Corr)= -0.84100645     E(Corr)=     -299.83997064    
 NORM(A)=   0.10803542D+01
 Iteration Nr.   2
 **********************
 DD1Dir will call FoFMem   1 times, MxPair=       156
 NAB=    78 NAA=     0 NBB=     0.
 DE(Corr)= -0.86412049     E(CORR)=     -299.86308468     Delta=-2.31D-02
 NORM(A)=   0.10859310D+01
 Iteration Nr.   3
 **********************
 DD1Dir will call FoFMem   1 times, MxPair=       156
 NAB=    78 NAA=     0 NBB=     0.
 DE(Corr)= -0.86122863     E(CORR)=     -299.86019282     Delta= 2.89D-03
 NORM(A)=   0.10881099D+01
 Iteration Nr.   4
 **********************
 DD1Dir will call FoFMem   1 times, MxPair=       156
 NAB=    78 NAA=     0 NBB=     0.
 DE(Corr)= -0.86312273     E(CORR)=     -299.86208691     Delta=-1.89D-03
 NORM(A)=   0.10889517D+01
 Iteration Nr.   5
 **********************
 DD1Dir will call FoFMem   1 times, MxPair=       156
 NAB=    78 NAA=     0 NBB=     0.
 DE(Corr)= -0.86331529     E(CORR)=     -299.86227948     Delta=-1.93D-04
 NORM(A)=   0.10891362D+01
 Iteration Nr.   6
 **********************
 DD1Dir will call FoFMem   1 times, MxPair=       156
 NAB=    78 NAA=     0 NBB=     0.
 DE(Corr)= -0.86332328     E(CORR)=     -299.86228747     Delta=-8.00D-06
 NORM(A)=   0.10891901D+01
 Iteration Nr.   7
 **********************
 DD1Dir will call FoFMem   1 times, MxPair=       156
 NAB=    78 NAA=     0 NBB=     0.
 DE(Corr)= -0.86332120     E(CORR)=     -299.86228539     Delta= 2.08D-06
 NORM(A)=   0.10891945D+01
 Iteration Nr.   8
 **********************
 DD1Dir will call FoFMem   1 times, MxPair=       156
 NAB=    78 NAA=     0 NBB=     0.
 DE(Corr)= -0.86332261     E(CORR)=     -299.86228680     Delta=-1.41D-06
 NORM(A)=   0.10891970D+01
 Iteration Nr.   9
 **********************
 DD1Dir will call FoFMem   1 times, MxPair=       156
 NAB=    78 NAA=     0 NBB=     0.
 DE(Corr)= -0.86332099     E(CORR)=     -299.86228517     Delta= 1.63D-06
 NORM(A)=   0.10891976D+01
 Iteration Nr.  10
 **********************
 DD1Dir will call FoFMem   1 times, MxPair=       156
 NAB=    78 NAA=     0 NBB=     0.
 DE(Corr)= -0.86332168     E(CORR)=     -299.86228587     Delta=-6.98D-07
 NORM(A)=   0.10891977D+01
 Iteration Nr.  11
 **********************
 DD1Dir will call FoFMem   1 times, MxPair=       156
 NAB=    78 NAA=     0 NBB=     0.
 DE(Corr)= -0.86332144     E(CORR)=     -299.86228563     Delta= 2.44D-07
 NORM(A)=   0.10891977D+01
 Iteration Nr.  12
 **********************
 DD1Dir will call FoFMem   1 times, MxPair=       156
 NAB=    78 NAA=     0 NBB=     0.
 DE(Corr)= -0.86332151     E(CORR)=     -299.86228570     Delta=-6.92D-08
 NORM(A)=   0.10891977D+01
 Wavefunction amplitudes converged. E(Corr)=     -299.86228570    
 Largest amplitude= 3.68D-02
 Discarding MO integrals.

 **********************************************************************

            Population analysis using the SCF Density.

 **********************************************************************

 Orbital symmetries:
       Occupied  (B2) (A1) (A1) (A1) (B2) (A1) (A1) (B1) (A1) (A2)
                 (B2) (B2) (A1) (B2) (B1)
       Virtual   (A1) (B2) (B1) (A1) (A1) (A2) (B2) (B1) (B2) (A1)
                 (A1) (A1) (B2) (B1) (A1) (A1) (B2) (A1) (B1) (A1)
                 (A2) (B2) (B1) (A1) (A1) (A2) (B1) (B2) (A1) (A1)
                 (A2) (B2) (B1) (A1) (A2) (B2) (B2) (B1) (A1) (A1)
                 (B1) (B2) (A1) (B2) (A1) (B1) (A1) (A1) (A2) (B2)
                 (B2) (B2) (A1) (B1) (A1) (A2) (B2) (A2) (B2) (B1)
                 (A1) (A2) (B2) (B1) (A1) (A1) (A2) (B1) (B2) (A1)
                 (A2) (B2) (B1) (B2) (A1) (A2) (B1) (B2) (A1) (A1)
                 (B1) (A1) (B2) (A2) (B2) (A1) (B2) (B1) (A1) (B1)
                 (A1) (A1) (B1) (A1) (A1) (B2) (B1) (A1) (B1) (B2)
                 (A1) (A2) (B2) (A2) (B2) (B2) (A1) (B1) (A1) (A2)
                 (B2) (A2) (B2) (B1) (B2) (A1) (A2) (B1) (B2) (A1)
                 (B1) (A1) (B2) (A2) (B2) (A2) (B2) (B1) (A1) (B1)
                 (A1) (A1) (A2) (B1) (B2) (A1) (B1) (A1) (A1) (A2)
                 (B2) (A1) (B2) (A1) (B2) (A1)
 The electronic state is 1-A1.
 Alpha  occ. eigenvalues --  -25.92806 -25.92804 -25.80438  -1.23044  -1.18315
 Alpha  occ. eigenvalues --   -1.04672  -0.43958  -0.30175  -0.30174  -0.27523
 Alpha  occ. eigenvalues --   -0.27523  -0.25433  -0.15165  -0.15164  -0.15164
 Alpha virt. eigenvalues --    0.22486   0.33465   0.38488   0.38514   0.38813
 Alpha virt. eigenvalues --    0.46329   0.46359   0.47174   0.47174   0.47198
 Alpha virt. eigenvalues --    0.50688   0.51500   0.57570   0.65047   0.65068
 Alpha virt. eigenvalues --    0.74937   0.93385   0.94856   1.02872   1.02872
 Alpha virt. eigenvalues --    1.22904   1.22904   1.23833   1.23843   1.25774
 Alpha virt. eigenvalues --    1.25774   1.25781   1.25781   1.25783   1.30317
 Alpha virt. eigenvalues --    1.34315   1.34325   1.45574   1.45582   1.48584
 Alpha virt. eigenvalues --    1.48592   1.48885   1.50097   1.50097   1.50737
 Alpha virt. eigenvalues --    1.55528   1.55528   1.55536   1.60542   1.72206
 Alpha virt. eigenvalues --    2.03202   2.03211   2.08044   2.28348   2.28358
 Alpha virt. eigenvalues --    2.38336   2.87691   2.96632   3.13349   3.13349
 Alpha virt. eigenvalues --    3.15358   3.15362   3.18753   3.18753   3.24342
 Alpha virt. eigenvalues --    3.24342   3.25693   3.25693   3.29320   3.29323
 Alpha virt. eigenvalues --    3.31262   3.31262   3.31265   3.31265   3.31266
 Alpha virt. eigenvalues --    3.33828   3.33828   3.36100   3.36100   3.36103
 Alpha virt. eigenvalues --    3.36103   3.36104   3.36104   3.36105   3.42978
 Alpha virt. eigenvalues --    3.62139   3.62139   3.86624   3.86798   3.86802
 Alpha virt. eigenvalues --    3.93005   4.04431   4.22702   4.22706   4.52225
 Alpha virt. eigenvalues --    4.52225   4.75694   4.82562   4.82564   5.38684
 Alpha virt. eigenvalues --    5.65494   5.68504   5.68506   5.70155   5.70155
 Alpha virt. eigenvalues --    5.70157   5.79035   5.79038   6.38477   6.38479
 Alpha virt. eigenvalues --    7.49445   8.40585   9.17064   9.17064   9.17876
 Alpha virt. eigenvalues --    9.17876   9.20249   9.20249   9.29728   9.29728
 Alpha virt. eigenvalues --    9.29730   9.29730   9.29731   9.29731   9.29731
 Alpha virt. eigenvalues --    9.40769   9.40769   9.56267   9.57989   9.57990
 Alpha virt. eigenvalues --    9.67334   9.67334   9.68968   9.68970   9.72546
 Alpha virt. eigenvalues --    9.72546   9.77446   9.77446   9.77447   9.77447
 Alpha virt. eigenvalues --    9.77448   9.88522   9.88523  10.01481  10.07525
 Alpha virt. eigenvalues --   10.07526  10.41944  10.55450  10.99478  13.53124
 Alpha virt. eigenvalues --   15.41896
          Condensed to atoms (all electrons):
               1          2          3          4
     1  F   10.000000  -0.000000   0.000000  -0.000000
     2  F   -0.000000   9.764178   0.092321  -0.101496
     3  H    0.000000   0.092321   0.305352   0.092321
     4  F   -0.000000  -0.101496   0.092321   9.764178
 Mulliken charges:
               1
     1  F   -1.000000
     2  F   -0.755003
     3  H    0.510006
     4  F   -0.755003
 Sum of Mulliken charges =  -2.00000
 Mulliken charges with hydrogens summed into heavy atoms:
               1
     1  F   -1.000000
     2  F   -0.244997
     4  F   -0.755003
 Electronic spatial extent (au):  <R**2>=           7853.0919
 Charge=             -2.0000 electrons
 Dipole moment (field-independent basis, Debye):
    X=              0.0000    Y=              0.0000    Z=            -30.8702  Tot=             30.8702
 Quadrupole moment (field-independent basis, Debye-Ang):
   XX=            -19.7367   YY=            -28.8623   ZZ=           -897.7459
   XY=             -0.0000   XZ=             -0.0000   YZ=              0.0000
 Traceless Quadrupole moment (field-independent basis, Debye-Ang):
   XX=            295.7116   YY=            286.5860   ZZ=           -582.2976
   XY=             -0.0000   XZ=             -0.0000   YZ=              0.0000
 Octapole moment (field-independent basis, Debye-Ang**2):
  XXX=              0.0000  YYY=              0.0000  ZZZ=          -7871.3886  XYY=              0.0000
  XXY=              0.0000  XXZ=            -14.8337  XZZ=              0.0000  YZZ=              0.0000
  YYZ=             37.9947  XYZ=              0.0000
 Hexadecapole moment (field-independent basis, Debye-Ang**3):
 XXXX=            -18.1929 YYYY=           -122.5768 ZZZZ=        -121378.4778 XXXY=             -0.0000
 XXXZ=             -0.0000 YYYX=             -0.0000 YYYZ=              0.0000 ZZZX=             -0.0000
 ZZZY=              0.0000 XXYY=            -22.0901 XXZZ=          -1496.5294 YYZZ=          -1818.3738
 XXYZ=              0.0000 YYXZ=             -0.0000 ZZXY=             -0.0000
 N-N= 3.219666471066D+01 E-N=-7.944166606096D+02  KE= 2.988725291057D+02
 Symmetry A1   KE= 1.805234679319D+02
 Symmetry A2   KE= 6.156761527528D+00
 Symmetry B1   KE= 1.146189065720D+01
 Symmetry B2   KE= 1.007304089891D+02
 1\1\GINC-HELIOS\SP\RCCSD-FC\Aug-CC-pVTZ\F3H1(2-)\POHL\07-May-2025\0\\#
  CCSD/aug-cc-pVTZ SP\\Single-point energy of X- + Y- at fixed distance
  R\\-2,1\F,0,0.,0.,18.\F,0,-1.139,0.,0.\H,0,0.,0.,0.\F,0,1.139,0.,0.\\
 Version=EM64L-G16RevB.01\State=1-A1\HF=-298.9989642\MP2=-299.8743326\M
 P3=-299.8509237\MP4D=-299.8667939\MP4DQ=-299.8567181\MP4SDQ=-299.86839
 97\CCSD=-299.8622857\RMSD=5.172e-09\PG=C02V [C2(H1F1),SGV(F2)]\\@


 THE MEEK SHALL INHERIT THE EARTH.
 (THE REST OF US WILL ESCAPE TO THE STARS)
 Job cpu time:       0 days  0 hours  4 minutes 36.4 seconds.
 Elapsed time:       0 days  0 hours  0 minutes 27.7 seconds.
 File lengths (MBytes):  RWF=    581 Int=      0 D2E=      0 Chk=      3 Scr=      1
 Normal termination of Gaussian 16 at Wed May  7 12:38:02 2025.
