 Entering Gaussian System, Link 0=g16
 Initial command:
 /opt/g16/l1.exe "/home/pohl/scratches/g16/Gau-1292388.inp" -scrdir="/home/pohl/scratches/g16/"
 Entering Link 1 = /opt/g16/l1.exe PID=   1292390.
  
 Copyright (c) 1988-2017, Gaussian, Inc.  All Rights Reserved.
  
 This is part of the Gaussian(R) 16 program.  It is based on
 the Gaussian(R) 09 system (copyright 2009, Gaussian, Inc.),
 the Gaussian(R) 03 system (copyright 2003, Gaussian, Inc.),
 the Gaussian(R) 98 system (copyright 1998, Gaussian, Inc.),
 the Gaussian(R) 94 system (copyright 1995, Gaussian, Inc.),
 the Gaussian 92(TM) system (copyright 1992, Gaussian, Inc.),
 the Gaussian 90(TM) system (copyright 1990, Gaussian, Inc.),
 the Gaussian 88(TM) system (copyright 1988, Gaussian, Inc.),
 the Gaussian 86(TM) system (copyright 1986, Carnegie Mellon
 University), and the Gaussian 82(TM) system (copyright 1983,
 Carnegie Mellon University). Gaussian is a federally registered
 trademark of Gaussian, Inc.
  
 This software contains proprietary and confidential information,
 including trade secrets, belonging to Gaussian, Inc.
  
 This software is provided under written license and may be
 used, copied, transmitted, or stored only in accord with that
 written license.
  
 The following legend is applicable only to US Government
 contracts under FAR:
  
                    RESTRICTED RIGHTS LEGEND
  
 Use, reproduction and disclosure by the US Government is
 subject to restrictions as set forth in subparagraphs (a)
 and (c) of the Commercial Computer Software - Restricted
 Rights clause in FAR 52.227-19.
  
 Gaussian, Inc.
 340 Quinnipiac St., Bldg. 40, Wallingford CT 06492
  
  
 ---------------------------------------------------------------
 Warning -- This program may not be used in any manner that
 competes with the business of Gaussian, Inc. or will provide
 assistance to any competitor of Gaussian, Inc.  The licensee
 of this program is prohibited from giving any competitor of
 Gaussian, Inc. access to this program.  By using this program,
 the user acknowledges that Gaussian, Inc. is engaged in the
 business of creating and licensing software in the field of
 computational chemistry and represents and warrants to the
 licensee that it is not a competitor of Gaussian, Inc. and that
 it will not use this program in any manner prohibited above.
 ---------------------------------------------------------------
  

 Cite this work as:
 Gaussian 16, Revision B.01,
 M. J. Frisch, G. W. Trucks, H. B. Schlegel, G. E. Scuseria, 
 M. A. Robb, J. R. Cheeseman, G. Scalmani, V. Barone, 
 G. A. Petersson, H. Nakatsuji, X. Li, M. Caricato, A. V. Marenich, 
 J. Bloino, B. G. Janesko, R. Gomperts, B. Mennucci, H. P. Hratchian, 
 J. V. Ortiz, A. F. Izmaylov, J. L. Sonnenberg, D. Williams-Young, 
 F. Ding, F. Lipparini, F. Egidi, J. Goings, B. Peng, A. Petrone, 
 T. Henderson, D. Ranasinghe, V. G. Zakrzewski, J. Gao, N. Rega, 
 G. Zheng, W. Liang, M. Hada, M. Ehara, K. Toyota, R. Fukuda, 
 J. Hasegawa, M. Ishida, T. Nakajima, Y. Honda, O. Kitao, H. Nakai, 
 T. Vreven, K. Throssell, J. A. Montgomery, Jr., J. E. Peralta, 
 F. Ogliaro, M. J. Bearpark, J. J. Heyd, E. N. Brothers, K. N. Kudin, 
 V. N. Staroverov, T. A. Keith, R. Kobayashi, J. Normand, 
 K. Raghavachari, A. P. Rendell, J. C. Burant, S. S. Iyengar, 
 J. Tomasi, M. Cossi, J. M. Millam, M. Klene, C. Adamo, R. Cammi, 
 J. W. Ochterski, R. L. Martin, K. Morokuma, O. Farkas, 
 J. B. Foresman, and D. J. Fox, Gaussian, Inc., Wallingford CT, 2016.
 
 ******************************************
 Gaussian 16:  EM64L-G16RevB.01 20-Dec-2017
                 7-May-2025 
 ******************************************
 %mem=30GB
 %nprocshared=10
 Will use up to   10 processors via shared memory.
 ---------------------
 # CCSD/aug-cc-pVTZ SP
 ---------------------
 1/38=1,172=1/1;
 2/12=2,17=6,18=5,40=1/2;
 3/5=16,6=1,7=10,11=9,25=1,30=1/1,2,3;
 4//1;
 5/5=2,38=5/2;
 8/6=4,9=120000,10=1/1,4;
 9/5=7/13;
 6/7=2,8=2,9=2,10=2/1;
 99/5=1,9=1/99;
 --------------------------------------------------
 Single-point energy of X- + Y- at fixed distance R
 --------------------------------------------------
 Symbolic Z-matrix:
 Charge = -2 Multiplicity = 1
 F                     0.        0.        18.5 
 F                    -1.139     0.        0. 
 H                     0.        0.        0. 
 F                     1.139     0.        0. 
 
                          Input orientation:                          
 ---------------------------------------------------------------------
 Center     Atomic      Atomic             Coordinates (Angstroms)
 Number     Number       Type             X           Y           Z
 ---------------------------------------------------------------------
      1          9           0        0.000000    0.000000   18.500000
      2          9           0       -1.139000    0.000000    0.000000
      3          1           0        0.000000    0.000000    0.000000
      4          9           0        1.139000    0.000000    0.000000
 ---------------------------------------------------------------------
                    Distance matrix (angstroms):
                    1          2          3          4
     1  F    0.000000
     2  F   18.535030   0.000000
     3  H   18.500000   1.139000   0.000000
     4  F   18.535030   2.278000   1.139000   0.000000
 Stoichiometry    F3H(2-)
 Framework group  C2V[C2(HF),SGV(F2)]
 Deg. of freedom     3
 Full point group                 C2V     NOp   4
 Largest Abelian subgroup         C2V     NOp   4
 Largest concise Abelian subgroup C2      NOp   2
                         Standard orientation:                         
 ---------------------------------------------------------------------
 Center     Atomic      Atomic             Coordinates (Angstroms)
 Number     Number       Type             X           Y           Z
 ---------------------------------------------------------------------
      1          9           0       -0.000000   -0.000000   12.553571
      2          9           0        0.000000    1.139000   -5.946429
      3          1           0        0.000000    0.000000   -5.946429
      4          9           0       -0.000000   -1.139000   -5.946429
 ---------------------------------------------------------------------
 Rotational constants (GHZ):          10.2523318           0.1155823           0.1142937
 Standard basis: Aug-CC-pVTZ (5D, 7F)
 There are    74 symmetry adapted cartesian basis functions of A1  symmetry.
 There are    25 symmetry adapted cartesian basis functions of A2  symmetry.
 There are    36 symmetry adapted cartesian basis functions of B1  symmetry.
 There are    55 symmetry adapted cartesian basis functions of B2  symmetry.
 There are    60 symmetry adapted basis functions of A1  symmetry.
 There are    23 symmetry adapted basis functions of A2  symmetry.
 There are    32 symmetry adapted basis functions of B1  symmetry.
 There are    46 symmetry adapted basis functions of B2  symmetry.
   161 basis functions,   243 primitive gaussians,   190 cartesian basis functions
    15 alpha electrons       15 beta electrons
       nuclear repulsion energy        32.0615436305 Hartrees.
 NAtoms=    4 NActive=    4 NUniq=    3 SFac= 1.78D+00 NAtFMM=   60 NAOKFM=F Big=F
 Integral buffers will be    131072 words long.
 Raffenetti 1 integral format.
 Two-electron integral symmetry is turned on.
 One-electron integrals computed using PRISM.
 NBasis=   161 RedAO= T EigKep=  2.93D-04  NBF=    60    23    32    46
 NBsUse=   161 1.00D-06 EigRej= -1.00D+00 NBFU=    60    23    32    46
 ExpMin= 2.53D-02 ExpMax= 1.95D+04 ExpMxC= 6.65D+02 IAcc=3 IRadAn=         5 AccDes= 0.00D+00
 Harris functional with IExCor=  205 and IRadAn=       5 diagonalized for initial guess.
 HarFok:  IExCor=  205 AccDes= 0.00D+00 IRadAn=         5 IDoV= 1 UseB2=F ITyADJ=14
 ICtDFT=  3500011 ScaDFX=  1.000000  1.000000  1.000000  1.000000
 FoFCou: FMM=F IPFlag=           0 FMFlag=      100000 FMFlg1=           0
         NFxFlg=           0 DoJE=T BraDBF=F KetDBF=T FulRan=T
         wScrn=  0.000000 ICntrl=       500 IOpCl=  0 I1Cent=   200000004 NGrid=           0
         NMat0=    1 NMatS0=      1 NMatT0=    0 NMatD0=    1 NMtDS0=    0 NMtDT0=    0
 Petite list used in FoFCou.
 Initial guess orbital symmetries:
       Occupied  (A1) (B2) (A1) (A1) (B2) (A1) (A1) (B1) (A1) (B2)
                 (A2) (B2) (B1) (B2) (A1)
       Virtual   (A1) (B2) (A1) (B1) (A1) (A1) (B1) (B2) (A1) (A1)
                 (A2) (B2) (B2) (B1) (A1) (A1) (A1) (B2) (B1) (A1)
                 (A2) (A1) (B1) (B2) (A1) (B2) (A2) (B1) (A1) (A2)
                 (B2) (A1) (B1) (A1) (B1) (B2) (A1) (A2) (B2) (B2)
                 (A1) (A1) (B1) (B2) (A1) (A1) (B1) (A1) (B2) (A2)
                 (B2) (B2) (A1) (A1) (B1) (A2) (B2) (B2) (A2) (A2)
                 (B1) (B2) (A1) (A1) (B1) (A1) (A1) (B1) (A2) (B2)
                 (A1) (B1) (B2) (A2) (A1) (B2) (B1) (A2) (B2) (A1)
                 (B1) (A1) (B2) (A2) (B2) (A1) (B2) (B1) (A1) (B1)
                 (A1) (A1) (B1) (A1) (A1) (B1) (B2) (A1) (B1) (A1)
                 (B2) (A2) (B2) (A2) (B2) (B2) (A1) (B1) (A1) (B2)
                 (A2) (A1) (B1) (B2) (A2) (A1) (B2) (B1) (A2) (B2)
                 (B1) (A1) (B2) (A2) (B1) (B2) (A1) (A1) (A2) (B2)
                 (B2) (A2) (A1) (B1) (B1) (A1) (B1) (A1) (A1) (A2)
                 (B2) (A1) (B2) (A1) (B2) (A1)
 The electronic state of the initial guess is 1-A1.
 Keep R1 ints in memory in symmetry-blocked form, NReq=106592091.
 Requested convergence on RMS density matrix=1.00D-08 within 128 cycles.
 Requested convergence on MAX density matrix=1.00D-06.
 Requested convergence on             energy=1.00D-06.
 No special actions if energy rises.
 SCF Done:  E(RHF) =  -298.999751299     A.U. after   10 cycles
            NFock= 10  Conv=0.52D-08     -V/T= 2.0004
 ExpMin= 2.53D-02 ExpMax= 1.95D+04 ExpMxC= 6.65D+02 IAcc=3 IRadAn=         5 AccDes= 0.00D+00
 HarFok:  IExCor=  205 AccDes= 0.00D+00 IRadAn=         5 IDoV=-2 UseB2=F ITyADJ=14
 ICtDFT= 12500011 ScaDFX=  1.000000  1.000000  1.000000  1.000000
 Range of M.O.s used for correlation:     4   161
 NBasis=   161 NAE=    15 NBE=    15 NFC=     3 NFV=     0
 NROrb=    158 NOA=    12 NOB=    12 NVA=   146 NVB=   146

 **** Warning!!: The largest alpha MO coefficient is  0.21677109D+02

 Semi-Direct transformation.
 ModeAB=           4 MOrb=            12 LenV=    4025789752
 LASXX=      5679395 LTotXX=     5679395 LenRXX=    11479218
 LTotAB=     5799823 MaxLAS=    12976224 LenRXY=           0
 NonZer=    17158613 LenScr=    26512384 LnRSAI=    12976224
 LnScr1=    20234240 LExtra=           0 Total=     71202066
 MaxDsk=          -1 SrtSym=           T ITran=            4
 JobTyp=0 Pass  1:  I=   1 to  12.
 (rs|ai) integrals will be sorted in core.
 Spin components of T(2) and E(2):
     alpha-alpha T2 =       0.2526456832D-01 E2=     -0.1154941623D+00
     alpha-beta  T2 =       0.1294474265D+00 E2=     -0.6443801197D+00
     beta-beta   T2 =       0.2526456832D-01 E2=     -0.1154941623D+00
 ANorm=    0.1086267261D+01
 E2 =    -0.8753684443D+00 EUMP2 =    -0.29987511974295D+03
 Keep R2 and R3 ints in memory in symmetry-blocked form, NReq=106598451.
 CIDS: In Core Option IDoMem=           1.
 Iterations=  50 Convergence= 0.100D-06
 Produce multiple copies of IABC intergrals
 Iteration Nr.   1
 **********************
 DD1Dir will call FoFMem   1 times, MxPair=       156
 NAB=    78 NAA=     0 NBB=     0.
 MP4(R+Q)=  0.10075842D-01
 E3=        0.23408851D-01        EUMP3=      -0.29985171089D+03
 E4(DQ)=   -0.57943298D-02        UMP4(DQ)=   -0.29985750522D+03
 E4(SDQ)=  -0.17475992D-01        UMP4(SDQ)=  -0.29986918688D+03
 DE(Corr)= -0.84100652     E(Corr)=     -299.84075782    
 NORM(A)=   0.10803541D+01
 Iteration Nr.   2
 **********************
 DD1Dir will call FoFMem   1 times, MxPair=       156
 NAB=    78 NAA=     0 NBB=     0.
 DE(Corr)= -0.86412054     E(CORR)=     -299.86387184     Delta=-2.31D-02
 NORM(A)=   0.10859310D+01
 Iteration Nr.   3
 **********************
 DD1Dir will call FoFMem   1 times, MxPair=       156
 NAB=    78 NAA=     0 NBB=     0.
 DE(Corr)= -0.86122870     E(CORR)=     -299.86098000     Delta= 2.89D-03
 NORM(A)=   0.10881099D+01
 Iteration Nr.   4
 **********************
 DD1Dir will call FoFMem   1 times, MxPair=       156
 NAB=    78 NAA=     0 NBB=     0.
 DE(Corr)= -0.86312279     E(CORR)=     -299.86287409     Delta=-1.89D-03
 NORM(A)=   0.10889517D+01
 Iteration Nr.   5
 **********************
 DD1Dir will call FoFMem   1 times, MxPair=       156
 NAB=    78 NAA=     0 NBB=     0.
 DE(Corr)= -0.86331535     E(CORR)=     -299.86306665     Delta=-1.93D-04
 NORM(A)=   0.10891361D+01
 Iteration Nr.   6
 **********************
 DD1Dir will call FoFMem   1 times, MxPair=       156
 NAB=    78 NAA=     0 NBB=     0.
 DE(Corr)= -0.86332335     E(CORR)=     -299.86307464     Delta=-8.00D-06
 NORM(A)=   0.10891900D+01
 Iteration Nr.   7
 **********************
 DD1Dir will call FoFMem   1 times, MxPair=       156
 NAB=    78 NAA=     0 NBB=     0.
 DE(Corr)= -0.86332127     E(CORR)=     -299.86307256     Delta= 2.08D-06
 NORM(A)=   0.10891944D+01
 Iteration Nr.   8
 **********************
 DD1Dir will call FoFMem   1 times, MxPair=       156
 NAB=    78 NAA=     0 NBB=     0.
 DE(Corr)= -0.86332267     E(CORR)=     -299.86307397     Delta=-1.41D-06
 NORM(A)=   0.10891969D+01
 Iteration Nr.   9
 **********************
 DD1Dir will call FoFMem   1 times, MxPair=       156
 NAB=    78 NAA=     0 NBB=     0.
 DE(Corr)= -0.86332105     E(CORR)=     -299.86307235     Delta= 1.63D-06
 NORM(A)=   0.10891976D+01
 Iteration Nr.  10
 **********************
 DD1Dir will call FoFMem   1 times, MxPair=       156
 NAB=    78 NAA=     0 NBB=     0.
 DE(Corr)= -0.86332174     E(CORR)=     -299.86307304     Delta=-6.98D-07
 NORM(A)=   0.10891976D+01
 Iteration Nr.  11
 **********************
 DD1Dir will call FoFMem   1 times, MxPair=       156
 NAB=    78 NAA=     0 NBB=     0.
 DE(Corr)= -0.86332150     E(CORR)=     -299.86307280     Delta= 2.44D-07
 NORM(A)=   0.10891977D+01
 Iteration Nr.  12
 **********************
 DD1Dir will call FoFMem   1 times, MxPair=       156
 NAB=    78 NAA=     0 NBB=     0.
 DE(Corr)= -0.86332157     E(CORR)=     -299.86307287     Delta=-6.87D-08
 NORM(A)=   0.10891977D+01
 Wavefunction amplitudes converged. E(Corr)=     -299.86307287    
 Largest amplitude= 3.68D-02
 Discarding MO integrals.

 **********************************************************************

            Population analysis using the SCF Density.

 **********************************************************************

 Orbital symmetries:
       Occupied  (B2) (A1) (A1) (A1) (B2) (A1) (A1) (B1) (A1) (A2)
                 (B2) (B2) (A1) (B2) (B1)
       Virtual   (A1) (B2) (B1) (A1) (A1) (A2) (B2) (B1) (B2) (A1)
                 (A1) (A1) (B2) (B1) (A1) (A1) (B2) (A1) (B1) (A1)
                 (A2) (B2) (B1) (A1) (A1) (A2) (B1) (B2) (A1) (A1)
                 (A2) (B2) (B1) (A1) (A2) (B2) (B2) (B1) (A1) (A1)
                 (B1) (B2) (A1) (B2) (A1) (B1) (A1) (A1) (A2) (B2)
                 (B2) (B2) (A1) (B1) (A1) (A2) (B2) (A2) (B2) (B1)
                 (A1) (A2) (B2) (B1) (A1) (A1) (A2) (B1) (B2) (A1)
                 (A2) (B2) (B1) (B2) (A1) (A2) (B1) (B2) (A1) (A1)
                 (B1) (A1) (B2) (A2) (B2) (A1) (B2) (B1) (A1) (B1)
                 (A1) (A1) (B1) (A1) (A1) (B2) (B1) (A1) (B1) (B2)
                 (A1) (A2) (B2) (A2) (B2) (B2) (A1) (B1) (A1) (A2)
                 (B2) (A2) (B2) (B1) (B2) (A1) (A2) (B1) (B2) (A1)
                 (B1) (A1) (B2) (A2) (B2) (A2) (B2) (B1) (A1) (B1)
                 (A1) (A1) (A2) (B1) (B2) (A1) (B1) (A1) (A1) (A2)
                 (B2) (A1) (B2) (A1) (B2) (A1)
 The electronic state is 1-A1.
 Alpha  occ. eigenvalues --  -25.92885 -25.92882 -25.80517  -1.23123  -1.18394
 Alpha  occ. eigenvalues --   -1.04750  -0.44036  -0.30253  -0.30252  -0.27602
 Alpha  occ. eigenvalues --   -0.27602  -0.25512  -0.15243  -0.15243  -0.15243
 Alpha virt. eigenvalues --    0.22407   0.33389   0.38410   0.38434   0.38734
 Alpha virt. eigenvalues --    0.46252   0.46279   0.47096   0.47096   0.47118
 Alpha virt. eigenvalues --    0.50609   0.51421   0.57492   0.64969   0.64988
 Alpha virt. eigenvalues --    0.74858   0.93307   0.94777   1.02792   1.02792
 Alpha virt. eigenvalues --    1.22825   1.22825   1.23754   1.23764   1.25696
 Alpha virt. eigenvalues --    1.25696   1.25702   1.25702   1.25704   1.30238
 Alpha virt. eigenvalues --    1.34237   1.34246   1.45495   1.45503   1.48505
 Alpha virt. eigenvalues --    1.48513   1.48807   1.50018   1.50018   1.50658
 Alpha virt. eigenvalues --    1.55449   1.55449   1.55457   1.60464   1.72127
 Alpha virt. eigenvalues --    2.03124   2.03131   2.07966   2.28270   2.28279
 Alpha virt. eigenvalues --    2.38257   2.87612   2.96553   3.13271   3.13271
 Alpha virt. eigenvalues --    3.15280   3.15283   3.18674   3.18674   3.24263
 Alpha virt. eigenvalues --    3.24263   3.25614   3.25614   3.29241   3.29244
 Alpha virt. eigenvalues --    3.31184   3.31184   3.31186   3.31186   3.31187
 Alpha virt. eigenvalues --    3.33750   3.33750   3.36021   3.36021   3.36024
 Alpha virt. eigenvalues --    3.36024   3.36025   3.36025   3.36026   3.42899
 Alpha virt. eigenvalues --    3.62060   3.62060   3.86545   3.86719   3.86723
 Alpha virt. eigenvalues --    3.92926   4.04353   4.22623   4.22627   4.52146
 Alpha virt. eigenvalues --    4.52146   4.75615   4.82483   4.82485   5.38605
 Alpha virt. eigenvalues --    5.65416   5.68425   5.68427   5.70076   5.70076
 Alpha virt. eigenvalues --    5.70078   5.78956   5.78959   6.38398   6.38400
 Alpha virt. eigenvalues --    7.49366   8.40506   9.16985   9.16985   9.17797
 Alpha virt. eigenvalues --    9.17797   9.20170   9.20170   9.29650   9.29650
 Alpha virt. eigenvalues --    9.29651   9.29651   9.29652   9.29652   9.29652
 Alpha virt. eigenvalues --    9.40690   9.40690   9.56188   9.57910   9.57911
 Alpha virt. eigenvalues --    9.67255   9.67255   9.68889   9.68891   9.72467
 Alpha virt. eigenvalues --    9.72467   9.77367   9.77367   9.77369   9.77369
 Alpha virt. eigenvalues --    9.77369   9.88443   9.88445  10.01403  10.07446
 Alpha virt. eigenvalues --   10.07448  10.41865  10.55372  10.99399  13.53045
 Alpha virt. eigenvalues --   15.41818
          Condensed to atoms (all electrons):
               1          2          3          4
     1  F   10.000000  -0.000000   0.000000  -0.000000
     2  F   -0.000000   9.764166   0.092311  -0.101478
     3  H    0.000000   0.092311   0.305379   0.092311
     4  F   -0.000000  -0.101478   0.092311   9.764166
 Mulliken charges:
               1
     1  F   -1.000000
     2  F   -0.755000
     3  H    0.509999
     4  F   -0.755000
 Sum of Mulliken charges =  -2.00000
 Mulliken charges with hydrogens summed into heavy atoms:
               1
     1  F   -1.000000
     2  F   -0.245000
     4  F   -0.755000
 Electronic spatial extent (au):  <R**2>=           8287.8357
 Charge=             -2.0000 electrons
 Dipole moment (field-independent basis, Debye):
    X=              0.0000    Y=              0.0000    Z=            -31.7283  Tot=             31.7283
 Quadrupole moment (field-independent basis, Debye-Ang):
   XX=            -19.7366   YY=            -28.8620   ZZ=           -947.1487
   XY=             -0.0000   XZ=             -0.0000   YZ=              0.0000
 Traceless Quadrupole moment (field-independent basis, Debye-Ang):
   XX=            312.1792   YY=            303.0537   ZZ=           -615.2329
   XY=             -0.0000   XZ=             -0.0000   YZ=              0.0000
 Octapole moment (field-independent basis, Debye-Ang**2):
  XXX=              0.0000  YYY=              0.0000  ZZZ=          -8542.7629  XYY=              0.0000
  XXY=             -0.0000  XXZ=            -15.2459  XZZ=              0.0000  YZZ=              0.0000
  YYZ=             39.0461  XYZ=              0.0000
 Hexadecapole moment (field-independent basis, Debye-Ang**3):
 XXXX=            -18.1926 YYYY=           -122.5748 ZZZZ=        -134891.7663 XXXY=             -0.0000
 XXXZ=             -0.0000 YYYX=             -0.0000 YYYZ=              0.0000 ZZZX=             -0.0000
 ZZZY=              0.0000 XXYY=            -22.0898 XXZZ=          -1580.4496 YYZZ=          -1919.4826
 XXYZ=             -0.0000 YYXZ=             -0.0000 ZZXY=             -0.0000
 N-N= 3.206154363052D+01 E-N=-7.941243604902D+02  KE= 2.988725328286D+02
 Symmetry A1   KE= 1.805234047058D+02
 Symmetry A2   KE= 6.156775054256D+00
 Symmetry B1   KE= 1.146192057720D+01
 Symmetry B2   KE= 1.007304324913D+02
 1\1\GINC-HELIOS\SP\RCCSD-FC\Aug-CC-pVTZ\F3H1(2-)\POHL\07-May-2025\0\\#
  CCSD/aug-cc-pVTZ SP\\Single-point energy of X- + Y- at fixed distance
  R\\-2,1\F,0,0.,0.,18.5\F,0,-1.139,0.,0.\H,0,0.,0.,0.\F,0,1.139,0.,0.\
 \Version=EM64L-G16RevB.01\State=1-A1\HF=-298.9997513\MP2=-299.8751197\
 MP3=-299.8517109\MP4D=-299.8675811\MP4DQ=-299.8575052\MP4SDQ=-299.8691
 869\CCSD=-299.8630729\RMSD=5.169e-09\PG=C02V [C2(H1F1),SGV(F2)]\\@


 Everywhere is walking distance if you have the time.
                                    -- Steven Wright
 Job cpu time:       0 days  0 hours  4 minutes 41.5 seconds.
 Elapsed time:       0 days  0 hours  0 minutes 28.3 seconds.
 File lengths (MBytes):  RWF=    581 Int=      0 D2E=      0 Chk=      3 Scr=      1
 Normal termination of Gaussian 16 at Wed May  7 12:38:31 2025.
