 Entering Gaussian System, Link 0=g16
 Initial command:
 /opt/g16/l1.exe "/home/pohl/scratches/g16/Gau-1292517.inp" -scrdir="/home/pohl/scratches/g16/"
 Entering Link 1 = /opt/g16/l1.exe PID=   1292519.
  
 Copyright (c) 1988-2017, Gaussian, Inc.  All Rights Reserved.
  
 This is part of the Gaussian(R) 16 program.  It is based on
 the Gaussian(R) 09 system (copyright 2009, Gaussian, Inc.),
 the Gaussian(R) 03 system (copyright 2003, Gaussian, Inc.),
 the Gaussian(R) 98 system (copyright 1998, Gaussian, Inc.),
 the Gaussian(R) 94 system (copyright 1995, Gaussian, Inc.),
 the Gaussian 92(TM) system (copyright 1992, Gaussian, Inc.),
 the Gaussian 90(TM) system (copyright 1990, Gaussian, Inc.),
 the Gaussian 88(TM) system (copyright 1988, Gaussian, Inc.),
 the Gaussian 86(TM) system (copyright 1986, Carnegie Mellon
 University), and the Gaussian 82(TM) system (copyright 1983,
 Carnegie Mellon University). Gaussian is a federally registered
 trademark of Gaussian, Inc.
  
 This software contains proprietary and confidential information,
 including trade secrets, belonging to Gaussian, Inc.
  
 This software is provided under written license and may be
 used, copied, transmitted, or stored only in accord with that
 written license.
  
 The following legend is applicable only to US Government
 contracts under FAR:
  
                    RESTRICTED RIGHTS LEGEND
  
 Use, reproduction and disclosure by the US Government is
 subject to restrictions as set forth in subparagraphs (a)
 and (c) of the Commercial Computer Software - Restricted
 Rights clause in FAR 52.227-19.
  
 Gaussian, Inc.
 340 Quinnipiac St., Bldg. 40, Wallingford CT 06492
  
  
 ---------------------------------------------------------------
 Warning -- This program may not be used in any manner that
 competes with the business of Gaussian, Inc. or will provide
 assistance to any competitor of Gaussian, Inc.  The licensee
 of this program is prohibited from giving any competitor of
 Gaussian, Inc. access to this program.  By using this program,
 the user acknowledges that Gaussian, Inc. is engaged in the
 business of creating and licensing software in the field of
 computational chemistry and represents and warrants to the
 licensee that it is not a competitor of Gaussian, Inc. and that
 it will not use this program in any manner prohibited above.
 ---------------------------------------------------------------
  

 Cite this work as:
 Gaussian 16, Revision B.01,
 M. J. Frisch, G. W. Trucks, H. B. Schlegel, G. E. Scuseria, 
 M. A. Robb, J. R. Cheeseman, G. Scalmani, V. Barone, 
 G. A. Petersson, H. Nakatsuji, X. Li, M. Caricato, A. V. Marenich, 
 J. Bloino, B. G. Janesko, R. Gomperts, B. Mennucci, H. P. Hratchian, 
 J. V. Ortiz, A. F. Izmaylov, J. L. Sonnenberg, D. Williams-Young, 
 F. Ding, F. Lipparini, F. Egidi, J. Goings, B. Peng, A. Petrone, 
 T. Henderson, D. Ranasinghe, V. G. Zakrzewski, J. Gao, N. Rega, 
 G. Zheng, W. Liang, M. Hada, M. Ehara, K. Toyota, R. Fukuda, 
 J. Hasegawa, M. Ishida, T. Nakajima, Y. Honda, O. Kitao, H. Nakai, 
 T. Vreven, K. Throssell, J. A. Montgomery, Jr., J. E. Peralta, 
 F. Ogliaro, M. J. Bearpark, J. J. Heyd, E. N. Brothers, K. N. Kudin, 
 V. N. Staroverov, T. A. Keith, R. Kobayashi, J. Normand, 
 K. Raghavachari, A. P. Rendell, J. C. Burant, S. S. Iyengar, 
 J. Tomasi, M. Cossi, J. M. Millam, M. Klene, C. Adamo, R. Cammi, 
 J. W. Ochterski, R. L. Martin, K. Morokuma, O. Farkas, 
 J. B. Foresman, and D. J. Fox, Gaussian, Inc., Wallingford CT, 2016.
 
 ******************************************
 Gaussian 16:  EM64L-G16RevB.01 20-Dec-2017
                 7-May-2025 
 ******************************************
 %mem=30GB
 %nprocshared=10
 Will use up to   10 processors via shared memory.
 ---------------------
 # CCSD/aug-cc-pVTZ SP
 ---------------------
 1/38=1,172=1/1;
 2/12=2,17=6,18=5,40=1/2;
 3/5=16,6=1,7=10,11=9,25=1,30=1/1,2,3;
 4//1;
 5/5=2,38=5/2;
 8/6=4,9=120000,10=1/1,4;
 9/5=7/13;
 6/7=2,8=2,9=2,10=2/1;
 99/5=1,9=1/99;
 --------------------------------------------------
 Single-point energy of X- + Y- at fixed distance R
 --------------------------------------------------
 Symbolic Z-matrix:
 Charge = -2 Multiplicity = 1
 F                     0.        0.        19. 
 F                    -1.139     0.        0. 
 H                     0.        0.        0. 
 F                     1.139     0.        0. 
 
                          Input orientation:                          
 ---------------------------------------------------------------------
 Center     Atomic      Atomic             Coordinates (Angstroms)
 Number     Number       Type             X           Y           Z
 ---------------------------------------------------------------------
      1          9           0        0.000000    0.000000   19.000000
      2          9           0       -1.139000    0.000000    0.000000
      3          1           0        0.000000    0.000000    0.000000
      4          9           0        1.139000    0.000000    0.000000
 ---------------------------------------------------------------------
                    Distance matrix (angstroms):
                    1          2          3          4
     1  F    0.000000
     2  F   19.034109   0.000000
     3  H   19.000000   1.139000   0.000000
     4  F   19.034109   2.278000   1.139000   0.000000
 Stoichiometry    F3H(2-)
 Framework group  C2V[C2(HF),SGV(F2)]
 Deg. of freedom     3
 Full point group                 C2V     NOp   4
 Largest Abelian subgroup         C2V     NOp   4
 Largest concise Abelian subgroup C2      NOp   2
                         Standard orientation:                         
 ---------------------------------------------------------------------
 Center     Atomic      Atomic             Coordinates (Angstroms)
 Number     Number       Type             X           Y           Z
 ---------------------------------------------------------------------
      1          9           0       -0.000000    0.000000   12.892857
      2          9           0        0.000000    1.139000   -6.107143
      3          1           0        0.000000   -0.000000   -6.107143
      4          9           0       -0.000000   -1.139000   -6.107143
 ---------------------------------------------------------------------
 Rotational constants (GHZ):          10.2523318           0.1095790           0.1084202
 Standard basis: Aug-CC-pVTZ (5D, 7F)
 There are    74 symmetry adapted cartesian basis functions of A1  symmetry.
 There are    25 symmetry adapted cartesian basis functions of A2  symmetry.
 There are    36 symmetry adapted cartesian basis functions of B1  symmetry.
 There are    55 symmetry adapted cartesian basis functions of B2  symmetry.
 There are    60 symmetry adapted basis functions of A1  symmetry.
 There are    23 symmetry adapted basis functions of A2  symmetry.
 There are    32 symmetry adapted basis functions of B1  symmetry.
 There are    46 symmetry adapted basis functions of B2  symmetry.
   161 basis functions,   243 primitive gaussians,   190 cartesian basis functions
    15 alpha electrons       15 beta electrons
       nuclear repulsion energy        31.9334970155 Hartrees.
 NAtoms=    4 NActive=    4 NUniq=    3 SFac= 1.78D+00 NAtFMM=   60 NAOKFM=F Big=F
 Integral buffers will be    131072 words long.
 Raffenetti 1 integral format.
 Two-electron integral symmetry is turned on.
 One-electron integrals computed using PRISM.
 NBasis=   161 RedAO= T EigKep=  2.93D-04  NBF=    60    23    32    46
 NBsUse=   161 1.00D-06 EigRej= -1.00D+00 NBFU=    60    23    32    46
 ExpMin= 2.53D-02 ExpMax= 1.95D+04 ExpMxC= 6.65D+02 IAcc=3 IRadAn=         5 AccDes= 0.00D+00
 Harris functional with IExCor=  205 and IRadAn=       5 diagonalized for initial guess.
 HarFok:  IExCor=  205 AccDes= 0.00D+00 IRadAn=         5 IDoV= 1 UseB2=F ITyADJ=14
 ICtDFT=  3500011 ScaDFX=  1.000000  1.000000  1.000000  1.000000
 FoFCou: FMM=F IPFlag=           0 FMFlag=      100000 FMFlg1=           0
         NFxFlg=           0 DoJE=T BraDBF=F KetDBF=T FulRan=T
         wScrn=  0.000000 ICntrl=       500 IOpCl=  0 I1Cent=   200000004 NGrid=           0
         NMat0=    1 NMatS0=      1 NMatT0=    0 NMatD0=    1 NMtDS0=    0 NMtDT0=    0
 Petite list used in FoFCou.
 Initial guess orbital symmetries:
       Occupied  (A1) (B2) (A1) (A1) (B2) (A1) (A1) (B1) (A1) (B2)
                 (A2) (B2) (B1) (B2) (A1)
       Virtual   (A1) (B2) (A1) (B1) (A1) (A1) (B2) (B1) (A1) (A1)
                 (A2) (B2) (B2) (B1) (A1) (A1) (A1) (B2) (B1) (A1)
                 (A1) (A2) (A1) (B1) (B2) (B2) (A2) (B1) (A1) (A2)
                 (B2) (A1) (B1) (A1) (B2) (B1) (A1) (A2) (B2) (B2)
                 (A1) (A1) (B1) (B2) (A1) (A1) (B1) (A1) (B2) (A2)
                 (B2) (B2) (A1) (A1) (B1) (A2) (B2) (B2) (A2) (A1)
                 (A2) (B1) (B2) (A1) (B1) (A1) (A1) (B1) (A2) (B2)
                 (A1) (B1) (B2) (A2) (A1) (B2) (B1) (A2) (B2) (A1)
                 (B1) (A1) (B2) (A2) (B2) (A1) (B2) (B1) (A1) (B1)
                 (A1) (A1) (B1) (A1) (A1) (B2) (B1) (A1) (B1) (A1)
                 (B2) (A2) (B2) (A2) (B2) (B2) (A1) (A1) (B1) (A2)
                 (B2) (A1) (B1) (B2) (A2) (A1) (B1) (B2) (A2) (B2)
                 (B1) (A1) (B2) (A2) (B1) (B2) (A1) (A1) (A2) (B2)
                 (B2) (A2) (A1) (B1) (B1) (A1) (B1) (A1) (A1) (A2)
                 (B2) (A1) (B2) (A1) (B2) (A1)
 The electronic state of the initial guess is 1-A1.
 Keep R1 ints in memory in symmetry-blocked form, NReq=106592091.
 Requested convergence on RMS density matrix=1.00D-08 within 128 cycles.
 Requested convergence on MAX density matrix=1.00D-06.
 Requested convergence on             energy=1.00D-06.
 No special actions if energy rises.
 SCF Done:  E(RHF) =  -299.000497368     A.U. after   10 cycles
            NFock= 10  Conv=0.52D-08     -V/T= 2.0004
 ExpMin= 2.53D-02 ExpMax= 1.95D+04 ExpMxC= 6.65D+02 IAcc=3 IRadAn=         5 AccDes= 0.00D+00
 HarFok:  IExCor=  205 AccDes= 0.00D+00 IRadAn=         5 IDoV=-2 UseB2=F ITyADJ=14
 ICtDFT= 12500011 ScaDFX=  1.000000  1.000000  1.000000  1.000000
 Range of M.O.s used for correlation:     4   161
 NBasis=   161 NAE=    15 NBE=    15 NFC=     3 NFV=     0
 NROrb=    158 NOA=    12 NOB=    12 NVA=   146 NVB=   146

 **** Warning!!: The largest alpha MO coefficient is  0.21677420D+02

 Semi-Direct transformation.
 ModeAB=           4 MOrb=            12 LenV=    4025789797
 LASXX=      5679395 LTotXX=     5679395 LenRXX=    11479218
 LTotAB=     5799823 MaxLAS=    12974328 LenRXY=           0
 NonZer=    17158613 LenScr=    26512384 LnRSAI=    12974328
 LnScr1=    20234240 LExtra=           0 Total=     71200170
 MaxDsk=          -1 SrtSym=           T ITran=            4
 JobTyp=0 Pass  1:  I=   1 to  12.
 (rs|ai) integrals will be sorted in core.
 Spin components of T(2) and E(2):
     alpha-alpha T2 =       0.2526456432D-01 E2=     -0.1154941711D+00
     alpha-beta  T2 =       0.1294474068D+00 E2=     -0.6443801584D+00
     beta-beta   T2 =       0.2526456432D-01 E2=     -0.1154941711D+00
 ANorm=    0.1086267249D+01
 E2 =    -0.8753685006D+00 EUMP2 =    -0.29987586586902D+03
 Keep R2 and R3 ints in memory in symmetry-blocked form, NReq=106598451.
 CIDS: In Core Option IDoMem=           1.
 Iterations=  50 Convergence= 0.100D-06
 Produce multiple copies of IABC intergrals
 Iteration Nr.   1
 **********************
 DD1Dir will call FoFMem   1 times, MxPair=       156
 NAB=    78 NAA=     0 NBB=     0.
 MP4(R+Q)=  0.10075857D-01
 E3=        0.23408834D-01        EUMP3=      -0.29985245704D+03
 E4(DQ)=   -0.57943106D-02        UMP4(DQ)=   -0.29985825135D+03
 E4(SDQ)=  -0.17475961D-01        UMP4(SDQ)=  -0.29986993300D+03
 DE(Corr)= -0.84100658     E(Corr)=     -299.84150395    
 NORM(A)=   0.10803541D+01
 Iteration Nr.   2
 **********************
 DD1Dir will call FoFMem   1 times, MxPair=       156
 NAB=    78 NAA=     0 NBB=     0.
 DE(Corr)= -0.86412059     E(CORR)=     -299.86461796     Delta=-2.31D-02
 NORM(A)=   0.10859310D+01
 Iteration Nr.   3
 **********************
 DD1Dir will call FoFMem   1 times, MxPair=       156
 NAB=    78 NAA=     0 NBB=     0.
 DE(Corr)= -0.86122877     E(CORR)=     -299.86172614     Delta= 2.89D-03
 NORM(A)=   0.10881099D+01
 Iteration Nr.   4
 **********************
 DD1Dir will call FoFMem   1 times, MxPair=       156
 NAB=    78 NAA=     0 NBB=     0.
 DE(Corr)= -0.86312285     E(CORR)=     -299.86362022     Delta=-1.89D-03
 NORM(A)=   0.10889516D+01
 Iteration Nr.   5
 **********************
 DD1Dir will call FoFMem   1 times, MxPair=       156
 NAB=    78 NAA=     0 NBB=     0.
 DE(Corr)= -0.86331541     E(CORR)=     -299.86381278     Delta=-1.93D-04
 NORM(A)=   0.10891361D+01
 Iteration Nr.   6
 **********************
 DD1Dir will call FoFMem   1 times, MxPair=       156
 NAB=    78 NAA=     0 NBB=     0.
 DE(Corr)= -0.86332340     E(CORR)=     -299.86382077     Delta=-8.00D-06
 NORM(A)=   0.10891899D+01
 Iteration Nr.   7
 **********************
 DD1Dir will call FoFMem   1 times, MxPair=       156
 NAB=    78 NAA=     0 NBB=     0.
 DE(Corr)= -0.86332132     E(CORR)=     -299.86381869     Delta= 2.08D-06
 NORM(A)=   0.10891944D+01
 Iteration Nr.   8
 **********************
 DD1Dir will call FoFMem   1 times, MxPair=       156
 NAB=    78 NAA=     0 NBB=     0.
 DE(Corr)= -0.86332273     E(CORR)=     -299.86382010     Delta=-1.41D-06
 NORM(A)=   0.10891969D+01
 Iteration Nr.   9
 **********************
 DD1Dir will call FoFMem   1 times, MxPair=       156
 NAB=    78 NAA=     0 NBB=     0.
 DE(Corr)= -0.86332110     E(CORR)=     -299.86381847     Delta= 1.63D-06
 NORM(A)=   0.10891975D+01
 Iteration Nr.  10
 **********************
 DD1Dir will call FoFMem   1 times, MxPair=       156
 NAB=    78 NAA=     0 NBB=     0.
 DE(Corr)= -0.86332180     E(CORR)=     -299.86381917     Delta=-6.97D-07
 NORM(A)=   0.10891976D+01
 Iteration Nr.  11
 **********************
 DD1Dir will call FoFMem   1 times, MxPair=       156
 NAB=    78 NAA=     0 NBB=     0.
 DE(Corr)= -0.86332156     E(CORR)=     -299.86381893     Delta= 2.44D-07
 NORM(A)=   0.10891976D+01
 Iteration Nr.  12
 **********************
 DD1Dir will call FoFMem   1 times, MxPair=       156
 NAB=    78 NAA=     0 NBB=     0.
 DE(Corr)= -0.86332163     E(CORR)=     -299.86381899     Delta=-6.84D-08
 NORM(A)=   0.10891976D+01
 Wavefunction amplitudes converged. E(Corr)=     -299.86381899    
 Largest amplitude= 3.68D-02
 Discarding MO integrals.

 **********************************************************************

            Population analysis using the SCF Density.

 **********************************************************************

 Orbital symmetries:
       Occupied  (B2) (A1) (A1) (A1) (B2) (A1) (A1) (B1) (A1) (A2)
                 (B2) (B2) (A1) (B2) (B1)
       Virtual   (A1) (B2) (B1) (A1) (A1) (A2) (B2) (B1) (B2) (A1)
                 (A1) (A1) (B2) (B1) (A1) (A1) (B2) (A1) (B1) (A1)
                 (A2) (B2) (B1) (A1) (A1) (A2) (B1) (B2) (A1) (A1)
                 (A2) (B2) (B1) (A1) (A2) (B2) (B2) (B1) (A1) (A1)
                 (B1) (B2) (A1) (B2) (A1) (B1) (A1) (A1) (A2) (B2)
                 (B2) (B2) (A1) (B1) (A1) (A2) (B2) (A2) (B2) (B1)
                 (A1) (A2) (B2) (B1) (A1) (A1) (A2) (B1) (B2) (A1)
                 (A2) (B2) (B1) (B2) (A1) (A2) (B1) (B2) (A1) (A1)
                 (B1) (A1) (B2) (A2) (B2) (A1) (B2) (B1) (A1) (B1)
                 (A1) (A1) (B1) (A1) (A1) (B2) (B1) (A1) (B1) (B2)
                 (A1) (A2) (B2) (A2) (B2) (B2) (A1) (B1) (A1) (A2)
                 (B2) (A2) (B2) (B1) (B2) (A1) (A2) (B1) (B2) (A1)
                 (B1) (A1) (B2) (A2) (B2) (A2) (B2) (B1) (A1) (B1)
                 (A1) (A1) (A2) (B1) (B2) (A1) (B1) (A1) (A1) (A2)
                 (B2) (A1) (B2) (A1) (B2) (A1)
 The electronic state is 1-A1.
 Alpha  occ. eigenvalues --  -25.92959 -25.92957 -25.80591  -1.23198  -1.18468
 Alpha  occ. eigenvalues --   -1.04825  -0.44111  -0.30328  -0.30327  -0.27677
 Alpha  occ. eigenvalues --   -0.27676  -0.25587  -0.15318  -0.15318  -0.15318
 Alpha virt. eigenvalues --    0.22333   0.33318   0.38336   0.38359   0.38659
 Alpha virt. eigenvalues --    0.46178   0.46204   0.47022   0.47022   0.47043
 Alpha virt. eigenvalues --    0.50534   0.51346   0.57418   0.64894   0.64912
 Alpha virt. eigenvalues --    0.74783   0.93233   0.94702   1.02717   1.02717
 Alpha virt. eigenvalues --    1.22750   1.22750   1.23680   1.23689   1.25621
 Alpha virt. eigenvalues --    1.25621   1.25627   1.25627   1.25629   1.30163
 Alpha virt. eigenvalues --    1.34163   1.34171   1.45420   1.45428   1.48430
 Alpha virt. eigenvalues --    1.48437   1.48733   1.49943   1.49943   1.50584
 Alpha virt. eigenvalues --    1.55375   1.55375   1.55382   1.60389   1.72052
 Alpha virt. eigenvalues --    2.03049   2.03056   2.07891   2.28196   2.28204
 Alpha virt. eigenvalues --    2.38182   2.87537   2.96479   3.13196   3.13196
 Alpha virt. eigenvalues --    3.15205   3.15208   3.18599   3.18599   3.24188
 Alpha virt. eigenvalues --    3.24188   3.25539   3.25539   3.29166   3.29170
 Alpha virt. eigenvalues --    3.31109   3.31109   3.31112   3.31112   3.31112
 Alpha virt. eigenvalues --    3.33675   3.33675   3.35947   3.35947   3.35949
 Alpha virt. eigenvalues --    3.35949   3.35951   3.35951   3.35951   3.42825
 Alpha virt. eigenvalues --    3.61985   3.61985   3.86471   3.86645   3.86648
 Alpha virt. eigenvalues --    3.92852   4.04278   4.22549   4.22552   4.52071
 Alpha virt. eigenvalues --    4.52071   4.75540   4.82408   4.82410   5.38530
 Alpha virt. eigenvalues --    5.65341   5.68350   5.68352   5.70002   5.70002
 Alpha virt. eigenvalues --    5.70004   5.78882   5.78884   6.38323   6.38325
 Alpha virt. eigenvalues --    7.49291   8.40432   9.16911   9.16911   9.17722
 Alpha virt. eigenvalues --    9.17722   9.20095   9.20095   9.29575   9.29575
 Alpha virt. eigenvalues --    9.29576   9.29576   9.29577   9.29577   9.29577
 Alpha virt. eigenvalues --    9.40615   9.40615   9.56113   9.57835   9.57837
 Alpha virt. eigenvalues --    9.67180   9.67180   9.68815   9.68816   9.72392
 Alpha virt. eigenvalues --    9.72392   9.77293   9.77293   9.77294   9.77294
 Alpha virt. eigenvalues --    9.77294   9.88369   9.88370  10.01328  10.07372
 Alpha virt. eigenvalues --   10.07373  10.41791  10.55297  10.99324  13.52971
 Alpha virt. eigenvalues --   15.41743
          Condensed to atoms (all electrons):
               1          2          3          4
     1  F   10.000000  -0.000000   0.000000  -0.000000
     2  F   -0.000000   9.764156   0.092302  -0.101461
     3  H    0.000000   0.092302   0.305403   0.092302
     4  F   -0.000000  -0.101461   0.092302   9.764156
 Mulliken charges:
               1
     1  F   -1.000000
     2  F   -0.754997
     3  H    0.509993
     4  F   -0.754997
 Sum of Mulliken charges =  -2.00000
 Mulliken charges with hydrogens summed into heavy atoms:
               1
     1  F   -1.000000
     2  F   -0.245003
     4  F   -0.754997
 Electronic spatial extent (au):  <R**2>=           8734.4912
 Charge=             -2.0000 electrons
 Dipole moment (field-independent basis, Debye):
    X=              0.0000    Y=              0.0000    Z=            -32.5864  Tot=             32.5864
 Quadrupole moment (field-independent basis, Debye-Ang):
   XX=            -19.7365   YY=            -28.8617   ZZ=           -997.9062
   XY=             -0.0000   XZ=             -0.0000   YZ=              0.0000
 Traceless Quadrupole moment (field-independent basis, Debye-Ang):
   XX=            329.0983   YY=            319.9731   ZZ=           -649.0714
   XY=             -0.0000   XZ=             -0.0000   YZ=              0.0000
 Octapole moment (field-independent basis, Debye-Ang**2):
  XXX=              0.0000  YYY=             -0.0000  ZZZ=          -9251.3573  XYY=              0.0000
  XXY=             -0.0000  XXZ=            -15.6580  XZZ=              0.0000  YZZ=             -0.0000
  YYZ=             40.0976  XYZ=              0.0000
 Hexadecapole moment (field-independent basis, Debye-Ang**3):
 XXXX=            -18.1923 YYYY=           -122.5729 ZZZZ=        -149517.2575 XXXY=             -0.0000
 XXXZ=             -0.0000 YYYX=             -0.0000 YYYZ=             -0.0000 ZZZX=             -0.0000
 ZZZY=              0.0000 XXYY=            -22.0895 XXZZ=          -1666.6698 YYZZ=          -2023.3633
 XXYZ=             -0.0000 YYXZ=             -0.0000 ZZXY=             -0.0000
 N-N= 3.193349701554D+01 E-N=-7.938473602233D+02  KE= 2.988725361381D+02
 Symmetry A1   KE= 1.805233478028D+02
 Symmetry A2   KE= 6.156787214000D+00
 Symmetry B1   KE= 1.146194748511D+01
 Symmetry B2   KE= 1.007304536362D+02
 1\1\GINC-HELIOS\SP\RCCSD-FC\Aug-CC-pVTZ\F3H1(2-)\POHL\07-May-2025\0\\#
  CCSD/aug-cc-pVTZ SP\\Single-point energy of X- + Y- at fixed distance
  R\\-2,1\F,0,0.,0.,19.\F,0,-1.139,0.,0.\H,0,0.,0.,0.\F,0,1.139,0.,0.\\
 Version=EM64L-G16RevB.01\State=1-A1\HF=-299.0004974\MP2=-299.8758659\M
 P3=-299.852457\MP4D=-299.8683272\MP4DQ=-299.8582513\MP4SDQ=-299.869933
 \CCSD=-299.863819\RMSD=5.166e-09\PG=C02V [C2(H1F1),SGV(F2)]\\@


 K N O W I N G  IS A BARRIER WHICH PREVENTS LEARNING

                     -- TEACHING OF THE BENE GESSERIT
 Job cpu time:       0 days  0 hours  4 minutes 39.7 seconds.
 Elapsed time:       0 days  0 hours  0 minutes 28.1 seconds.
 File lengths (MBytes):  RWF=    581 Int=      0 D2E=      0 Chk=      3 Scr=      1
 Normal termination of Gaussian 16 at Wed May  7 12:38:59 2025.
