 Entering Gaussian System, Link 0=g16
 Initial command:
 /opt/g16/l1.exe "/home/pohl/scratches/g16/Gau-1292773.inp" -scrdir="/home/pohl/scratches/g16/"
 Entering Link 1 = /opt/g16/l1.exe PID=   1292775.
  
 Copyright (c) 1988-2017, Gaussian, Inc.  All Rights Reserved.
  
 This is part of the Gaussian(R) 16 program.  It is based on
 the Gaussian(R) 09 system (copyright 2009, Gaussian, Inc.),
 the Gaussian(R) 03 system (copyright 2003, Gaussian, Inc.),
 the Gaussian(R) 98 system (copyright 1998, Gaussian, Inc.),
 the Gaussian(R) 94 system (copyright 1995, Gaussian, Inc.),
 the Gaussian 92(TM) system (copyright 1992, Gaussian, Inc.),
 the Gaussian 90(TM) system (copyright 1990, Gaussian, Inc.),
 the Gaussian 88(TM) system (copyright 1988, Gaussian, Inc.),
 the Gaussian 86(TM) system (copyright 1986, Carnegie Mellon
 University), and the Gaussian 82(TM) system (copyright 1983,
 Carnegie Mellon University). Gaussian is a federally registered
 trademark of Gaussian, Inc.
  
 This software contains proprietary and confidential information,
 including trade secrets, belonging to Gaussian, Inc.
  
 This software is provided under written license and may be
 used, copied, transmitted, or stored only in accord with that
 written license.
  
 The following legend is applicable only to US Government
 contracts under FAR:
  
                    RESTRICTED RIGHTS LEGEND
  
 Use, reproduction and disclosure by the US Government is
 subject to restrictions as set forth in subparagraphs (a)
 and (c) of the Commercial Computer Software - Restricted
 Rights clause in FAR 52.227-19.
  
 Gaussian, Inc.
 340 Quinnipiac St., Bldg. 40, Wallingford CT 06492
  
  
 ---------------------------------------------------------------
 Warning -- This program may not be used in any manner that
 competes with the business of Gaussian, Inc. or will provide
 assistance to any competitor of Gaussian, Inc.  The licensee
 of this program is prohibited from giving any competitor of
 Gaussian, Inc. access to this program.  By using this program,
 the user acknowledges that Gaussian, Inc. is engaged in the
 business of creating and licensing software in the field of
 computational chemistry and represents and warrants to the
 licensee that it is not a competitor of Gaussian, Inc. and that
 it will not use this program in any manner prohibited above.
 ---------------------------------------------------------------
  

 Cite this work as:
 Gaussian 16, Revision B.01,
 M. J. Frisch, G. W. Trucks, H. B. Schlegel, G. E. Scuseria, 
 M. A. Robb, J. R. Cheeseman, G. Scalmani, V. Barone, 
 G. A. Petersson, H. Nakatsuji, X. Li, M. Caricato, A. V. Marenich, 
 J. Bloino, B. G. Janesko, R. Gomperts, B. Mennucci, H. P. Hratchian, 
 J. V. Ortiz, A. F. Izmaylov, J. L. Sonnenberg, D. Williams-Young, 
 F. Ding, F. Lipparini, F. Egidi, J. Goings, B. Peng, A. Petrone, 
 T. Henderson, D. Ranasinghe, V. G. Zakrzewski, J. Gao, N. Rega, 
 G. Zheng, W. Liang, M. Hada, M. Ehara, K. Toyota, R. Fukuda, 
 J. Hasegawa, M. Ishida, T. Nakajima, Y. Honda, O. Kitao, H. Nakai, 
 T. Vreven, K. Throssell, J. A. Montgomery, Jr., J. E. Peralta, 
 F. Ogliaro, M. J. Bearpark, J. J. Heyd, E. N. Brothers, K. N. Kudin, 
 V. N. Staroverov, T. A. Keith, R. Kobayashi, J. Normand, 
 K. Raghavachari, A. P. Rendell, J. C. Burant, S. S. Iyengar, 
 J. Tomasi, M. Cossi, J. M. Millam, M. Klene, C. Adamo, R. Cammi, 
 J. W. Ochterski, R. L. Martin, K. Morokuma, O. Farkas, 
 J. B. Foresman, and D. J. Fox, Gaussian, Inc., Wallingford CT, 2016.
 
 ******************************************
 Gaussian 16:  EM64L-G16RevB.01 20-Dec-2017
                 7-May-2025 
 ******************************************
 %mem=30GB
 %nprocshared=10
 Will use up to   10 processors via shared memory.
 ---------------------
 # CCSD/aug-cc-pVTZ SP
 ---------------------
 1/38=1,172=1/1;
 2/12=2,17=6,18=5,40=1/2;
 3/5=16,6=1,7=10,11=9,25=1,30=1/1,2,3;
 4//1;
 5/5=2,38=5/2;
 8/6=4,9=120000,10=1/1,4;
 9/5=7/13;
 6/7=2,8=2,9=2,10=2/1;
 99/5=1,9=1/99;
 --------------------------------------------------
 Single-point energy of X- + Y- at fixed distance R
 --------------------------------------------------
 Symbolic Z-matrix:
 Charge = -2 Multiplicity = 1
 F                     0.        0.        20. 
 F                    -1.139     0.        0. 
 H                     0.        0.        0. 
 F                     1.139     0.        0. 
 
                          Input orientation:                          
 ---------------------------------------------------------------------
 Center     Atomic      Atomic             Coordinates (Angstroms)
 Number     Number       Type             X           Y           Z
 ---------------------------------------------------------------------
      1          9           0        0.000000    0.000000   20.000000
      2          9           0       -1.139000    0.000000    0.000000
      3          1           0        0.000000    0.000000    0.000000
      4          9           0        1.139000    0.000000    0.000000
 ---------------------------------------------------------------------
                    Distance matrix (angstroms):
                    1          2          3          4
     1  F    0.000000
     2  F   20.032407   0.000000
     3  H   20.000000   1.139000   0.000000
     4  F   20.032407   2.278000   1.139000   0.000000
 Stoichiometry    F3H(2-)
 Framework group  C2V[C2(HF),SGV(F2)]
 Deg. of freedom     3
 Full point group                 C2V     NOp   4
 Largest Abelian subgroup         C2V     NOp   4
 Largest concise Abelian subgroup C2      NOp   2
                         Standard orientation:                         
 ---------------------------------------------------------------------
 Center     Atomic      Atomic             Coordinates (Angstroms)
 Number     Number       Type             X           Y           Z
 ---------------------------------------------------------------------
      1          9           0        0.000000    0.000000   13.571429
      2          9           0        0.000000    1.139000   -6.428571
      3          1           0        0.000000    0.000000   -6.428571
      4          9           0       -0.000000   -1.139000   -6.428571
 ---------------------------------------------------------------------
 Rotational constants (GHZ):          10.2523318           0.0988951           0.0979502
 Standard basis: Aug-CC-pVTZ (5D, 7F)
 There are    74 symmetry adapted cartesian basis functions of A1  symmetry.
 There are    25 symmetry adapted cartesian basis functions of A2  symmetry.
 There are    36 symmetry adapted cartesian basis functions of B1  symmetry.
 There are    55 symmetry adapted cartesian basis functions of B2  symmetry.
 There are    60 symmetry adapted basis functions of A1  symmetry.
 There are    23 symmetry adapted basis functions of A2  symmetry.
 There are    32 symmetry adapted basis functions of B1  symmetry.
 There are    46 symmetry adapted basis functions of B2  symmetry.
   161 basis functions,   243 primitive gaussians,   190 cartesian basis functions
    15 alpha electrons       15 beta electrons
       nuclear repulsion energy        31.6965186416 Hartrees.
 NAtoms=    4 NActive=    4 NUniq=    3 SFac= 1.78D+00 NAtFMM=   60 NAOKFM=F Big=F
 Integral buffers will be    131072 words long.
 Raffenetti 1 integral format.
 Two-electron integral symmetry is turned on.
 One-electron integrals computed using PRISM.
 NBasis=   161 RedAO= T EigKep=  2.93D-04  NBF=    60    23    32    46
 NBsUse=   161 1.00D-06 EigRej= -1.00D+00 NBFU=    60    23    32    46
 ExpMin= 2.53D-02 ExpMax= 1.95D+04 ExpMxC= 6.65D+02 IAcc=3 IRadAn=         5 AccDes= 0.00D+00
 Harris functional with IExCor=  205 and IRadAn=       5 diagonalized for initial guess.
 HarFok:  IExCor=  205 AccDes= 0.00D+00 IRadAn=         5 IDoV= 1 UseB2=F ITyADJ=14
 ICtDFT=  3500011 ScaDFX=  1.000000  1.000000  1.000000  1.000000
 FoFCou: FMM=F IPFlag=           0 FMFlag=      100000 FMFlg1=           0
         NFxFlg=           0 DoJE=T BraDBF=F KetDBF=T FulRan=T
         wScrn=  0.000000 ICntrl=       500 IOpCl=  0 I1Cent=   200000004 NGrid=           0
         NMat0=    1 NMatS0=      1 NMatT0=    0 NMatD0=    1 NMtDS0=    0 NMtDT0=    0
 Petite list used in FoFCou.
 Initial guess orbital symmetries:
       Occupied  (A1) (B2) (A1) (A1) (B2) (A1) (A1) (B1) (A1) (B2)
                 (A2) (B2) (A1) (B1) (B2)
       Virtual   (A1) (B2) (A1) (B1) (A1) (A1) (B1) (A1) (B2) (A1)
                 (A2) (B2) (B2) (B1) (A1) (A1) (A1) (B2) (B1) (A1)
                 (B2) (A1) (A2) (B1) (A1) (B2) (A2) (B1) (A1) (A2)
                 (B2) (A1) (B1) (A1) (B1) (A1) (B2) (A2) (B2) (B2)
                 (A1) (A1) (B1) (B2) (A1) (A1) (B1) (A1) (B2) (A2)
                 (B2) (B2) (A1) (A1) (B1) (A2) (B2) (B2) (A2) (B2)
                 (A2) (B1) (A1) (A1) (B1) (A1) (A1) (B1) (B2) (A2)
                 (A1) (B2) (B1) (A2) (B2) (B1) (A1) (A2) (B2) (A1)
                 (B1) (A1) (B2) (A2) (B2) (A1) (B2) (B1) (A1) (B1)
                 (A1) (A1) (B1) (A1) (A1) (B1) (A1) (B2) (B1) (A1)
                 (B2) (A2) (B2) (A2) (B2) (B2) (A1) (B1) (A1) (B2)
                 (A2) (B2) (A1) (B1) (A2) (B2) (B1) (A1) (A2) (B2)
                 (B1) (A1) (B2) (B2) (A2) (B1) (A1) (A1) (A2) (B2)
                 (B2) (A2) (A1) (B1) (B1) (A1) (B1) (A1) (A1) (A2)
                 (B2) (A1) (B2) (A1) (B2) (A1)
 The electronic state of the initial guess is 1-A1.
 Keep R1 ints in memory in symmetry-blocked form, NReq=106592091.
 Requested convergence on RMS density matrix=1.00D-08 within 128 cycles.
 Requested convergence on MAX density matrix=1.00D-06.
 Requested convergence on             energy=1.00D-06.
 No special actions if energy rises.
 SCF Done:  E(RHF) =  -299.001878550     A.U. after   10 cycles
            NFock= 10  Conv=0.52D-08     -V/T= 2.0004
 ExpMin= 2.53D-02 ExpMax= 1.95D+04 ExpMxC= 6.65D+02 IAcc=3 IRadAn=         5 AccDes= 0.00D+00
 HarFok:  IExCor=  205 AccDes= 0.00D+00 IRadAn=         5 IDoV=-2 UseB2=F ITyADJ=14
 ICtDFT= 12500011 ScaDFX=  1.000000  1.000000  1.000000  1.000000
 Range of M.O.s used for correlation:     4   161
 NBasis=   161 NAE=    15 NBE=    15 NFC=     3 NFV=     0
 NROrb=    158 NOA=    12 NOB=    12 NVA=   146 NVB=   146

 **** Warning!!: The largest alpha MO coefficient is  0.21677943D+02

 Semi-Direct transformation.
 ModeAB=           4 MOrb=            12 LenV=    4025790185
 LASXX=      5679395 LTotXX=     5679395 LenRXX=    11479218
 LTotAB=     5799823 MaxLAS=    12881424 LenRXY=           0
 NonZer=    17158613 LenScr=    26512384 LnRSAI=    12881424
 LnScr1=    20087808 LExtra=           0 Total=     70960834
 MaxDsk=          -1 SrtSym=           T ITran=            4
 JobTyp=0 Pass  1:  I=   1 to  12.
 (rs|ai) integrals will be sorted in core.
 Spin components of T(2) and E(2):
     alpha-alpha T2 =       0.2526455860D-01 E2=     -0.1154941879D+00
     alpha-beta  T2 =       0.1294473784D+00 E2=     -0.6443802313D+00
     beta-beta   T2 =       0.2526455860D-01 E2=     -0.1154941879D+00
 ANorm=    0.1086267230D+01
 E2 =    -0.8753686070D+00 EUMP2 =    -0.29987724715733D+03
 Keep R2 and R3 ints in memory in symmetry-blocked form, NReq=106598451.
 CIDS: In Core Option IDoMem=           1.
 Iterations=  50 Convergence= 0.100D-06
 Produce multiple copies of IABC intergrals
 Iteration Nr.   1
 **********************
 DD1Dir will call FoFMem   1 times, MxPair=       156
 NAB=    78 NAA=     0 NBB=     0.
 MP4(R+Q)=  0.10075884D-01
 E3=        0.23408809D-01        EUMP3=      -0.29985383835D+03
 E4(DQ)=   -0.57942789D-02        UMP4(DQ)=   -0.29985963263D+03
 E4(SDQ)=  -0.17475910D-01        UMP4(SDQ)=  -0.29987131426D+03
 DE(Corr)= -0.84100669     E(Corr)=     -299.84288524    
 NORM(A)=   0.10803541D+01
 Iteration Nr.   2
 **********************
 DD1Dir will call FoFMem   1 times, MxPair=       156
 NAB=    78 NAA=     0 NBB=     0.
 DE(Corr)= -0.86412069     E(CORR)=     -299.86599924     Delta=-2.31D-02
 NORM(A)=   0.10859309D+01
 Iteration Nr.   3
 **********************
 DD1Dir will call FoFMem   1 times, MxPair=       156
 NAB=    78 NAA=     0 NBB=     0.
 DE(Corr)= -0.86122889     E(CORR)=     -299.86310744     Delta= 2.89D-03
 NORM(A)=   0.10881098D+01
 Iteration Nr.   4
 **********************
 DD1Dir will call FoFMem   1 times, MxPair=       156
 NAB=    78 NAA=     0 NBB=     0.
 DE(Corr)= -0.86312296     E(CORR)=     -299.86500151     Delta=-1.89D-03
 NORM(A)=   0.10889516D+01
 Iteration Nr.   5
 **********************
 DD1Dir will call FoFMem   1 times, MxPair=       156
 NAB=    78 NAA=     0 NBB=     0.
 DE(Corr)= -0.86331551     E(CORR)=     -299.86519406     Delta=-1.93D-04
 NORM(A)=   0.10891360D+01
 Iteration Nr.   6
 **********************
 DD1Dir will call FoFMem   1 times, MxPair=       156
 NAB=    78 NAA=     0 NBB=     0.
 DE(Corr)= -0.86332351     E(CORR)=     -299.86520206     Delta=-8.00D-06
 NORM(A)=   0.10891898D+01
 Iteration Nr.   7
 **********************
 DD1Dir will call FoFMem   1 times, MxPair=       156
 NAB=    78 NAA=     0 NBB=     0.
 DE(Corr)= -0.86332143     E(CORR)=     -299.86519998     Delta= 2.08D-06
 NORM(A)=   0.10891943D+01
 Iteration Nr.   8
 **********************
 DD1Dir will call FoFMem   1 times, MxPair=       156
 NAB=    78 NAA=     0 NBB=     0.
 DE(Corr)= -0.86332284     E(CORR)=     -299.86520139     Delta=-1.41D-06
 NORM(A)=   0.10891968D+01
 Iteration Nr.   9
 **********************
 DD1Dir will call FoFMem   1 times, MxPair=       156
 NAB=    78 NAA=     0 NBB=     0.
 DE(Corr)= -0.86332121     E(CORR)=     -299.86519976     Delta= 1.62D-06
 NORM(A)=   0.10891974D+01
 Iteration Nr.  10
 **********************
 DD1Dir will call FoFMem   1 times, MxPair=       156
 NAB=    78 NAA=     0 NBB=     0.
 DE(Corr)= -0.86332191     E(CORR)=     -299.86520046     Delta=-6.97D-07
 NORM(A)=   0.10891975D+01
 Iteration Nr.  11
 **********************
 DD1Dir will call FoFMem   1 times, MxPair=       156
 NAB=    78 NAA=     0 NBB=     0.
 DE(Corr)= -0.86332167     E(CORR)=     -299.86520022     Delta= 2.43D-07
 NORM(A)=   0.10891975D+01
 Iteration Nr.  12
 **********************
 DD1Dir will call FoFMem   1 times, MxPair=       156
 NAB=    78 NAA=     0 NBB=     0.
 DE(Corr)= -0.86332173     E(CORR)=     -299.86520028     Delta=-6.77D-08
 NORM(A)=   0.10891975D+01
 Wavefunction amplitudes converged. E(Corr)=     -299.86520028    
 Largest amplitude= 3.68D-02
 Discarding MO integrals.

 **********************************************************************

            Population analysis using the SCF Density.

 **********************************************************************

 Orbital symmetries:
       Occupied  (B2) (A1) (A1) (A1) (B2) (A1) (A1) (B1) (A1) (A2)
                 (B2) (B2) (A1) (B2) (B1)
       Virtual   (A1) (B2) (B1) (A1) (A1) (A2) (B2) (B1) (B2) (A1)
                 (A1) (A1) (B2) (B1) (A1) (A1) (B2) (A1) (B1) (A1)
                 (A2) (B2) (B1) (A1) (A1) (A2) (B1) (B2) (A1) (A1)
                 (A2) (B2) (B1) (A1) (A2) (B2) (B2) (B1) (A1) (A1)
                 (B1) (B2) (A1) (B2) (A1) (B1) (A1) (A1) (A2) (B2)
                 (B2) (B2) (A1) (B1) (A1) (A2) (B2) (A2) (B2) (B1)
                 (A1) (A2) (B2) (B1) (A1) (A1) (A2) (B1) (B2) (A1)
                 (A2) (B2) (B1) (B2) (A1) (A2) (B1) (B2) (A1) (A1)
                 (B1) (A1) (B2) (A2) (B2) (A1) (B2) (B1) (A1) (B1)
                 (A1) (A1) (B1) (A1) (A1) (B2) (B1) (A1) (B1) (B2)
                 (A1) (A2) (B2) (A2) (B2) (B2) (A1) (B1) (A1) (A2)
                 (B2) (A2) (B2) (B1) (B2) (A1) (A2) (B1) (B2) (A1)
                 (B1) (A1) (B2) (A2) (B2) (A2) (B2) (B1) (A1) (B1)
                 (A1) (A1) (A2) (B1) (B2) (A1) (B1) (A1) (A1) (A2)
                 (B2) (A1) (B2) (A1) (B2) (A1)
 The electronic state is 1-A1.
 Alpha  occ. eigenvalues --  -25.93098 -25.93096 -25.80729  -1.23336  -1.18607
 Alpha  occ. eigenvalues --   -1.04963  -0.44250  -0.30466  -0.30466  -0.27815
 Alpha  occ. eigenvalues --   -0.27815  -0.25725  -0.15456  -0.15456  -0.15456
 Alpha virt. eigenvalues --    0.22194   0.33184   0.38200   0.38220   0.38521
 Alpha virt. eigenvalues --    0.46042   0.46064   0.46885   0.46885   0.46903
 Alpha virt. eigenvalues --    0.50396   0.51207   0.57281   0.64757   0.64772
 Alpha virt. eigenvalues --    0.74645   0.93095   0.94564   1.02578   1.02578
 Alpha virt. eigenvalues --    1.22612   1.22612   1.23543   1.23550   1.25484
 Alpha virt. eigenvalues --    1.25484   1.25489   1.25489   1.25490   1.30025
 Alpha virt. eigenvalues --    1.34026   1.34033   1.45282   1.45289   1.48292
 Alpha virt. eigenvalues --    1.48298   1.48595   1.49804   1.49804   1.50446
 Alpha virt. eigenvalues --    1.55237   1.55237   1.55243   1.60251   1.71913
 Alpha virt. eigenvalues --    2.02911   2.02917   2.07753   2.28058   2.28065
 Alpha virt. eigenvalues --    2.38044   2.87399   2.96340   3.13057   3.13057
 Alpha virt. eigenvalues --    3.15067   3.15069   3.18461   3.18461   3.24049
 Alpha virt. eigenvalues --    3.24049   3.25400   3.25400   3.29028   3.29031
 Alpha virt. eigenvalues --    3.30971   3.30971   3.30973   3.30973   3.30974
 Alpha virt. eigenvalues --    3.33537   3.33537   3.35809   3.35809   3.35811
 Alpha virt. eigenvalues --    3.35811   3.35812   3.35812   3.35813   3.42686
 Alpha virt. eigenvalues --    3.61847   3.61847   3.86333   3.86507   3.86510
 Alpha virt. eigenvalues --    3.92713   4.04140   4.22410   4.22413   4.51932
 Alpha virt. eigenvalues --    4.51932   4.75402   4.82270   4.82272   5.38392
 Alpha virt. eigenvalues --    5.65202   5.68212   5.68214   5.69864   5.69864
 Alpha virt. eigenvalues --    5.69865   5.78743   5.78746   6.38185   6.38186
 Alpha virt. eigenvalues --    7.49153   8.40293   9.16772   9.16772   9.17584
 Alpha virt. eigenvalues --    9.17584   9.19957   9.19957   9.29437   9.29437
 Alpha virt. eigenvalues --    9.29438   9.29438   9.29439   9.29439   9.29439
 Alpha virt. eigenvalues --    9.40477   9.40477   9.55975   9.57697   9.57698
 Alpha virt. eigenvalues --    9.67042   9.67042   9.68677   9.68678   9.72254
 Alpha virt. eigenvalues --    9.72254   9.77155   9.77155   9.77156   9.77156
 Alpha virt. eigenvalues --    9.77156   9.88230   9.88231  10.01190  10.07234
 Alpha virt. eigenvalues --   10.07235  10.41652  10.55159  10.99186  13.52833
 Alpha virt. eigenvalues --   15.41605
          Condensed to atoms (all electrons):
               1          2          3          4
     1  F   10.000000   0.000000   0.000000   0.000000
     2  F    0.000000   9.764139   0.092286  -0.101433
     3  H    0.000000   0.092286   0.305445   0.092286
     4  F    0.000000  -0.101433   0.092286   9.764139
 Mulliken charges:
               1
     1  F   -1.000000
     2  F   -0.754992
     3  H    0.509984
     4  F   -0.754992
 Sum of Mulliken charges =  -2.00000
 Mulliken charges with hydrogens summed into heavy atoms:
               1
     1  F   -1.000000
     2  F   -0.245008
     4  F   -0.754992
 Electronic spatial extent (au):  <R**2>=           9663.5376
 Charge=             -2.0000 electrons
 Dipole moment (field-independent basis, Debye):
    X=              0.0000    Y=              0.0000    Z=            -34.3025  Tot=             34.3025
 Quadrupole moment (field-independent basis, Debye-Ang):
   XX=            -19.7364   YY=            -28.8612   ZZ=          -1103.4856
   XY=             -0.0000   XZ=             -0.0000   YZ=              0.0000
 Traceless Quadrupole moment (field-independent basis, Debye-Ang):
   XX=            364.2913   YY=            355.1665   ZZ=           -719.4579
   XY=             -0.0000   XZ=             -0.0000   YZ=              0.0000
 Octapole moment (field-independent basis, Debye-Ang**2):
  XXX=              0.0000  YYY=              0.0000  ZZZ=         -10784.2300  XYY=              0.0000
  XXY=             -0.0000  XXZ=            -16.4823  XZZ=              0.0000  YZZ=              0.0000
  YYZ=             42.2013  XYZ=              0.0000
 Hexadecapole moment (field-independent basis, Debye-Ang**3):
 XXXX=            -18.1918 YYYY=           -122.5697 ZZZZ=        -182347.1256 XXXY=             -0.0000
 XXXZ=             -0.0000 YYYX=             -0.0000 YYYZ=             -0.0000 ZZZX=             -0.0000
 ZZZY=              0.0000 XXYY=            -22.0891 XXZZ=          -1846.0102 YYZZ=          -2239.4400
 XXYZ=             -0.0000 YYXZ=             -0.0000 ZZXY=             -0.0000
 N-N= 3.169651864163D+01 E-N=-7.933347007675D+02  KE= 2.988725417301D+02
 Symmetry A1   KE= 1.805232499989D+02
 Symmetry A2   KE= 6.156808081040D+00
 Symmetry B1   KE= 1.146199368814D+01
 Symmetry B2   KE= 1.007304899621D+02
 1\1\GINC-HELIOS\SP\RCCSD-FC\Aug-CC-pVTZ\F3H1(2-)\POHL\07-May-2025\0\\#
  CCSD/aug-cc-pVTZ SP\\Single-point energy of X- + Y- at fixed distance
  R\\-2,1\F,0,0.,0.,20.\F,0,-1.139,0.,0.\H,0,0.,0.,0.\F,0,1.139,0.,0.\\
 Version=EM64L-G16RevB.01\State=1-A1\HF=-299.0018786\MP2=-299.8772472\M
 P3=-299.8538383\MP4D=-299.8697085\MP4DQ=-299.8596326\MP4SDQ=-299.87131
 43\CCSD=-299.8652003\RMSD=5.160e-09\PG=C02V [C2(H1F1),SGV(F2)]\\@


 READER, WHETHER YOU BE DILETTANTE OR PROFESSOR ... SHOW YOURSELF TO BE
 MORE HUMAN THAN CRITICAL, AND THEN YOUR PLEASURE WILL INCREASE.
                                           -- DOMENICO SCARLATTI (1738)
 Job cpu time:       0 days  0 hours  4 minutes 41.8 seconds.
 Elapsed time:       0 days  0 hours  0 minutes 28.4 seconds.
 File lengths (MBytes):  RWF=    580 Int=      0 D2E=      0 Chk=      3 Scr=      1
 Normal termination of Gaussian 16 at Wed May  7 12:39:51 2025.
