 Entering Gaussian System, Link 0=g16
 Initial command:
 /opt/g16/l1.exe "/home/pohl/scratches/g16/Gau-1322673.inp" -scrdir="/home/pohl/scratches/g16/"
 Entering Link 1 = /opt/g16/l1.exe PID=   1322675.
  
 Copyright (c) 1988-2017, Gaussian, Inc.  All Rights Reserved.
  
 This is part of the Gaussian(R) 16 program.  It is based on
 the Gaussian(R) 09 system (copyright 2009, Gaussian, Inc.),
 the Gaussian(R) 03 system (copyright 2003, Gaussian, Inc.),
 the Gaussian(R) 98 system (copyright 1998, Gaussian, Inc.),
 the Gaussian(R) 94 system (copyright 1995, Gaussian, Inc.),
 the Gaussian 92(TM) system (copyright 1992, Gaussian, Inc.),
 the Gaussian 90(TM) system (copyright 1990, Gaussian, Inc.),
 the Gaussian 88(TM) system (copyright 1988, Gaussian, Inc.),
 the Gaussian 86(TM) system (copyright 1986, Carnegie Mellon
 University), and the Gaussian 82(TM) system (copyright 1983,
 Carnegie Mellon University). Gaussian is a federally registered
 trademark of Gaussian, Inc.
  
 This software contains proprietary and confidential information,
 including trade secrets, belonging to Gaussian, Inc.
  
 This software is provided under written license and may be
 used, copied, transmitted, or stored only in accord with that
 written license.
  
 The following legend is applicable only to US Government
 contracts under FAR:
  
                    RESTRICTED RIGHTS LEGEND
  
 Use, reproduction and disclosure by the US Government is
 subject to restrictions as set forth in subparagraphs (a)
 and (c) of the Commercial Computer Software - Restricted
 Rights clause in FAR 52.227-19.
  
 Gaussian, Inc.
 340 Quinnipiac St., Bldg. 40, Wallingford CT 06492
  
  
 ---------------------------------------------------------------
 Warning -- This program may not be used in any manner that
 competes with the business of Gaussian, Inc. or will provide
 assistance to any competitor of Gaussian, Inc.  The licensee
 of this program is prohibited from giving any competitor of
 Gaussian, Inc. access to this program.  By using this program,
 the user acknowledges that Gaussian, Inc. is engaged in the
 business of creating and licensing software in the field of
 computational chemistry and represents and warrants to the
 licensee that it is not a competitor of Gaussian, Inc. and that
 it will not use this program in any manner prohibited above.
 ---------------------------------------------------------------
  

 Cite this work as:
 Gaussian 16, Revision B.01,
 M. J. Frisch, G. W. Trucks, H. B. Schlegel, G. E. Scuseria, 
 M. A. Robb, J. R. Cheeseman, G. Scalmani, V. Barone, 
 G. A. Petersson, H. Nakatsuji, X. Li, M. Caricato, A. V. Marenich, 
 J. Bloino, B. G. Janesko, R. Gomperts, B. Mennucci, H. P. Hratchian, 
 J. V. Ortiz, A. F. Izmaylov, J. L. Sonnenberg, D. Williams-Young, 
 F. Ding, F. Lipparini, F. Egidi, J. Goings, B. Peng, A. Petrone, 
 T. Henderson, D. Ranasinghe, V. G. Zakrzewski, J. Gao, N. Rega, 
 G. Zheng, W. Liang, M. Hada, M. Ehara, K. Toyota, R. Fukuda, 
 J. Hasegawa, M. Ishida, T. Nakajima, Y. Honda, O. Kitao, H. Nakai, 
 T. Vreven, K. Throssell, J. A. Montgomery, Jr., J. E. Peralta, 
 F. Ogliaro, M. J. Bearpark, J. J. Heyd, E. N. Brothers, K. N. Kudin, 
 V. N. Staroverov, T. A. Keith, R. Kobayashi, J. Normand, 
 K. Raghavachari, A. P. Rendell, J. C. Burant, S. S. Iyengar, 
 J. Tomasi, M. Cossi, J. M. Millam, M. Klene, C. Adamo, R. Cammi, 
 J. W. Ochterski, R. L. Martin, K. Morokuma, O. Farkas, 
 J. B. Foresman, and D. J. Fox, Gaussian, Inc., Wallingford CT, 2016.
 
 ******************************************
 Gaussian 16:  EM64L-G16RevB.01 20-Dec-2017
                 8-May-2025 
 ******************************************
 %mem=30GB
 %nprocshared=10
 Will use up to   10 processors via shared memory.
 ---------------------
 # CCSD/aug-cc-pVTZ SP
 ---------------------
 1/38=1,172=1/1;
 2/12=2,17=6,18=5,40=1/2;
 3/5=16,6=1,7=10,11=9,25=1,30=1/1,2,3;
 4//1;
 5/5=2,38=5/2;
 8/6=4,9=120000,10=1/1,4;
 9/5=7/13;
 6/7=2,8=2,9=2,10=2/1;
 99/5=1,9=1/99;
 --------------------------------------------------
 Single-point energy of X- + Y- at fixed distance R
 --------------------------------------------------
 Symbolic Z-matrix:
 Charge = -2 Multiplicity = 1
 F                     0.        0.        3.4 
 F                    -1.139     0.        0. 
 H                     0.        0.        0. 
 F                     1.139     0.        0. 
 
                          Input orientation:                          
 ---------------------------------------------------------------------
 Center     Atomic      Atomic             Coordinates (Angstroms)
 Number     Number       Type             X           Y           Z
 ---------------------------------------------------------------------
      1          9           0        0.000000    0.000000    3.400000
      2          9           0       -1.139000    0.000000    0.000000
      3          1           0        0.000000    0.000000    0.000000
      4          9           0        1.139000    0.000000    0.000000
 ---------------------------------------------------------------------
                    Distance matrix (angstroms):
                    1          2          3          4
     1  F    0.000000
     2  F    3.585711   0.000000
     3  H    3.400000   1.139000   0.000000
     4  F    3.585711   2.278000   1.139000   0.000000
 Stoichiometry    F3H(2-)
 Framework group  C2V[C2(HF),SGV(F2)]
 Deg. of freedom     3
 Full point group                 C2V     NOp   4
 Largest Abelian subgroup         C2V     NOp   4
 Largest concise Abelian subgroup C2      NOp   2
                         Standard orientation:                         
 ---------------------------------------------------------------------
 Center     Atomic      Atomic             Coordinates (Angstroms)
 Number     Number       Type             X           Y           Z
 ---------------------------------------------------------------------
      1          9           0       -0.000000    0.000000    2.307143
      2          9           0        0.000000    1.139000   -1.092857
      3          1           0        0.000000   -0.000000   -1.092857
      4          9           0       -0.000000   -1.139000   -1.092857
 ---------------------------------------------------------------------
 Rotational constants (GHZ):          10.2523318           3.4219748           2.5656307
 Standard basis: Aug-CC-pVTZ (5D, 7F)
 There are    74 symmetry adapted cartesian basis functions of A1  symmetry.
 There are    25 symmetry adapted cartesian basis functions of A2  symmetry.
 There are    36 symmetry adapted cartesian basis functions of B1  symmetry.
 There are    55 symmetry adapted cartesian basis functions of B2  symmetry.
 There are    60 symmetry adapted basis functions of A1  symmetry.
 There are    23 symmetry adapted basis functions of A2  symmetry.
 There are    32 symmetry adapted basis functions of B1  symmetry.
 There are    46 symmetry adapted basis functions of B2  symmetry.
   161 basis functions,   243 primitive gaussians,   190 cartesian basis functions
    15 alpha electrons       15 beta electrons
       nuclear repulsion energy        52.4876217883 Hartrees.
 NAtoms=    4 NActive=    4 NUniq=    3 SFac= 1.78D+00 NAtFMM=   60 NAOKFM=F Big=F
 Integral buffers will be    131072 words long.
 Raffenetti 1 integral format.
 Two-electron integral symmetry is turned on.
 One-electron integrals computed using PRISM.
 NBasis=   161 RedAO= T EigKep=  2.93D-04  NBF=    60    23    32    46
 NBsUse=   161 1.00D-06 EigRej= -1.00D+00 NBFU=    60    23    32    46
 ExpMin= 2.53D-02 ExpMax= 1.95D+04 ExpMxC= 6.65D+02 IAcc=3 IRadAn=         5 AccDes= 0.00D+00
 Harris functional with IExCor=  205 and IRadAn=       5 diagonalized for initial guess.
 HarFok:  IExCor=  205 AccDes= 0.00D+00 IRadAn=         5 IDoV= 1 UseB2=F ITyADJ=14
 ICtDFT=  3500011 ScaDFX=  1.000000  1.000000  1.000000  1.000000
 FoFCou: FMM=F IPFlag=           0 FMFlag=      100000 FMFlg1=           0
         NFxFlg=           0 DoJE=T BraDBF=F KetDBF=T FulRan=T
         wScrn=  0.000000 ICntrl=       500 IOpCl=  0 I1Cent=   200000004 NGrid=           0
         NMat0=    1 NMatS0=      1 NMatT0=    0 NMatD0=    1 NMtDS0=    0 NMtDT0=    0
 Petite list used in FoFCou.
 Initial guess orbital symmetries:
       Occupied  (A1) (B2) (A1) (A1) (B2) (A1) (A1) (A1) (B1) (B2)
                 (B2) (A2) (B1) (B2) (A1)
       Virtual   (A1) (A1) (B2) (B1) (A1) (A1) (B2) (B1) (A1) (A2)
                 (B2) (A1) (B2) (A1) (B1) (A1) (A1) (B2) (B1) (A1)
                 (B2) (A1) (A2) (B1) (A2) (A1) (B1) (B2) (A1) (A2)
                 (A1) (B2) (A1) (B1) (B1) (B2) (A2) (B2) (A1) (B2)
                 (A1) (B1) (A1) (B2) (A1) (A1) (B1) (A1) (B2) (A2)
                 (B2) (B2) (A1) (B1) (A1) (B2) (A2) (B2) (A2) (A1)
                 (A2) (B1) (B2) (A1) (B1) (A1) (B1) (A2) (B2) (A1)
                 (B2) (B1) (A2) (B1) (A1) (B2) (A2) (A1) (B2) (A1)
                 (B1) (A1) (B2) (A2) (B2) (A1) (B2) (B1) (A1) (B1)
                 (A1) (A1) (B1) (A1) (A1) (B1) (B2) (A1) (B1) (A1)
                 (B2) (A2) (B2) (A2) (B2) (B2) (A1) (B1) (A1) (A2)
                 (B2) (B1) (B2) (A2) (A1) (B1) (B2) (A1) (A2) (B2)
                 (B1) (A1) (B2) (B2) (A2) (A1) (A2) (B2) (B1) (A2)
                 (A1) (B1) (B2) (B1) (A1) (A1) (B1) (A1) (A1) (A2)
                 (B2) (A1) (B2) (A1) (B2) (A1)
 The electronic state of the initial guess is 1-A1.
 Keep R1 ints in memory in symmetry-blocked form, NReq=106592091.
 Requested convergence on RMS density matrix=1.00D-08 within 128 cycles.
 Requested convergence on MAX density matrix=1.00D-06.
 Requested convergence on             energy=1.00D-06.
 No special actions if energy rises.
 SCF Done:  E(RHF) =  -298.888595672     A.U. after   10 cycles
            NFock= 10  Conv=0.10D-07     -V/T= 2.0001
 ExpMin= 2.53D-02 ExpMax= 1.95D+04 ExpMxC= 6.65D+02 IAcc=3 IRadAn=         5 AccDes= 0.00D+00
 HarFok:  IExCor=  205 AccDes= 0.00D+00 IRadAn=         5 IDoV=-2 UseB2=F ITyADJ=14
 ICtDFT= 12500011 ScaDFX=  1.000000  1.000000  1.000000  1.000000
 Range of M.O.s used for correlation:     4   161
 NBasis=   161 NAE=    15 NBE=    15 NFC=     3 NFV=     0
 NROrb=    158 NOA=    12 NOB=    12 NVA=   146 NVB=   146

 **** Warning!!: The largest alpha MO coefficient is  0.19851812D+02

 Semi-Direct transformation.
 ModeAB=           4 MOrb=            12 LenV=    4025764237
 LASXX=      5679395 LTotXX=     5679395 LenRXX=    11479218
 LTotAB=     5799823 MaxLAS=    20266344 LenRXY=           0
 NonZer=    17158613 LenScr=    26512384 LnRSAI=    20266344
 LnScr1=    31170560 LExtra=           0 Total=     89428506
 MaxDsk=          -1 SrtSym=           T ITran=            4
 JobTyp=0 Pass  1:  I=   1 to  12.
 (rs|ai) integrals will be sorted in core.
 Spin components of T(2) and E(2):
     alpha-alpha T2 =       0.2543868259D-01 E2=     -0.1157743127D+00
     alpha-beta  T2 =       0.1301358581D+00 E2=     -0.6453138527D+00
     beta-beta   T2 =       0.2543868259D-01 E2=     -0.1157743127D+00
 ANorm=    0.1086744323D+01
 E2 =    -0.8768624782D+00 EUMP2 =    -0.29976545815032D+03
 Keep R2 and R3 ints in memory in symmetry-blocked form, NReq=106598451.
 CIDS: In Core Option IDoMem=           1.
 Iterations=  50 Convergence= 0.100D-06
 Produce multiple copies of IABC intergrals
 Iteration Nr.   1
 **********************
 DD1Dir will call FoFMem   1 times, MxPair=       156
 NAB=    78 NAA=     0 NBB=     0.
 MP4(R+Q)=  0.10167421D-01
 E3=        0.23895997D-01        EUMP3=      -0.29974156215D+03
 E4(DQ)=   -0.58791761D-02        UMP4(DQ)=   -0.29974744133D+03
 E4(SDQ)=  -0.17920299D-01        UMP4(SDQ)=  -0.29975948245D+03
 DE(Corr)= -0.84187228     E(Corr)=     -299.73046795    
 NORM(A)=   0.10808699D+01
 Iteration Nr.   2
 **********************
 DD1Dir will call FoFMem   1 times, MxPair=       156
 NAB=    78 NAA=     0 NBB=     0.
 DE(Corr)= -0.86546081     E(CORR)=     -299.75405648     Delta=-2.36D-02
 NORM(A)=   0.10865528D+01
 Iteration Nr.   3
 **********************
 DD1Dir will call FoFMem   1 times, MxPair=       156
 NAB=    78 NAA=     0 NBB=     0.
 DE(Corr)= -0.86238775     E(CORR)=     -299.75098342     Delta= 3.07D-03
 NORM(A)=   0.10889126D+01
 Iteration Nr.   4
 **********************
 DD1Dir will call FoFMem   1 times, MxPair=       156
 NAB=    78 NAA=     0 NBB=     0.
 DE(Corr)= -0.86436947     E(CORR)=     -299.75296514     Delta=-1.98D-03
 NORM(A)=   0.10898436D+01
 Iteration Nr.   5
 **********************
 DD1Dir will call FoFMem   1 times, MxPair=       156
 NAB=    78 NAA=     0 NBB=     0.
 DE(Corr)= -0.86457550     E(CORR)=     -299.75317117     Delta=-2.06D-04
 NORM(A)=   0.10900679D+01
 Iteration Nr.   6
 **********************
 DD1Dir will call FoFMem   1 times, MxPair=       156
 NAB=    78 NAA=     0 NBB=     0.
 DE(Corr)= -0.86458586     E(CORR)=     -299.75318153     Delta=-1.04D-05
 NORM(A)=   0.10901437D+01
 Iteration Nr.   7
 **********************
 DD1Dir will call FoFMem   1 times, MxPair=       156
 NAB=    78 NAA=     0 NBB=     0.
 DE(Corr)= -0.86458335     E(CORR)=     -299.75317902     Delta= 2.51D-06
 NORM(A)=   0.10901555D+01
 Iteration Nr.   8
 **********************
 DD1Dir will call FoFMem   1 times, MxPair=       156
 NAB=    78 NAA=     0 NBB=     0.
 DE(Corr)= -0.86459060     E(CORR)=     -299.75318627     Delta=-7.25D-06
 NORM(A)=   0.10901608D+01
 Iteration Nr.   9
 **********************
 DD1Dir will call FoFMem   1 times, MxPair=       156
 NAB=    78 NAA=     0 NBB=     0.
 DE(Corr)= -0.86458210     E(CORR)=     -299.75317777     Delta= 8.50D-06
 NORM(A)=   0.10901635D+01
 Iteration Nr.  10
 **********************
 DD1Dir will call FoFMem   1 times, MxPair=       156
 NAB=    78 NAA=     0 NBB=     0.
 DE(Corr)= -0.86458580     E(CORR)=     -299.75318147     Delta=-3.70D-06
 NORM(A)=   0.10901624D+01
 Iteration Nr.  11
 **********************
 DD1Dir will call FoFMem   1 times, MxPair=       156
 NAB=    78 NAA=     0 NBB=     0.
 DE(Corr)= -0.86458426     E(CORR)=     -299.75317993     Delta= 1.54D-06
 NORM(A)=   0.10901616D+01
 Iteration Nr.  12
 **********************
 DD1Dir will call FoFMem   1 times, MxPair=       156
 NAB=    78 NAA=     0 NBB=     0.
 DE(Corr)= -0.86458425     E(CORR)=     -299.75317992     Delta= 7.98D-09
 NORM(A)=   0.10901609D+01
 Wavefunction amplitudes converged. E(Corr)=     -299.75317992    
 Largest amplitude= 3.38D-02
 Discarding MO integrals.

 **********************************************************************

            Population analysis using the SCF Density.

 **********************************************************************

 Orbital symmetries:
       Occupied  (B2) (A1) (A1) (A1) (B2) (A1) (A1) (B1) (A1) (A2)
                 (B2) (B2) (B1) (B2) (A1)
       Virtual   (A1) (B2) (A1) (B1) (A1) (A2) (B2) (A1) (B1) (B2)
                 (A1) (B2) (A1) (B1) (A1) (A1) (B2) (A1) (B1) (A1)
                 (B2) (A2) (A1) (B1) (A2) (A1) (B1) (A1) (B2) (A2)
                 (B2) (A1) (B1) (A1) (A2) (A1) (B2) (B1) (A1) (B2)
                 (B2) (B1) (B2) (A1) (A1) (B1) (A1) (A1) (A2) (B2)
                 (B2) (B2) (A1) (B1) (A2) (B2) (A1) (B2) (A2) (A1)
                 (B1) (B2) (A2) (B1) (A1) (A2) (A1) (B2) (B1) (A2)
                 (B2) (B1) (B2) (A1) (A2) (B1) (A1) (B2) (A1) (A1)
                 (B1) (A1) (B2) (A2) (B2) (A1) (B2) (B1) (A1) (B1)
                 (A1) (A1) (B1) (A1) (A1) (B2) (B1) (A1) (B1) (B2)
                 (A1) (A2) (B2) (A2) (B2) (B2) (A1) (B1) (A1) (A2)
                 (B2) (A2) (B2) (B1) (B2) (A2) (A1) (B1) (B2) (A1)
                 (B1) (A1) (B2) (A2) (B2) (B2) (A2) (B1) (A1) (B1)
                 (A1) (A2) (A1) (B1) (B2) (A1) (B1) (A1) (A1) (A2)
                 (B2) (A1) (B2) (A1) (B2) (A1)
 The electronic state is 1-A1.
 Alpha  occ. eigenvalues --  -25.81629 -25.81627 -25.69725  -1.11772  -1.07089
 Alpha  occ. eigenvalues --   -0.93893  -0.32702  -0.18968  -0.18836  -0.16339
 Alpha  occ. eigenvalues --   -0.16249  -0.14308  -0.04381  -0.04380  -0.04324
 Alpha virt. eigenvalues --    0.30609   0.41146   0.46974   0.48050   0.50139
 Alpha virt. eigenvalues --    0.55860   0.56981   0.58014   0.58021   0.59887
 Alpha virt. eigenvalues --    0.60892   0.69503   0.74451   0.75772   0.78738
 Alpha virt. eigenvalues --    0.86606   1.04246   1.06367   1.14810   1.16342
 Alpha virt. eigenvalues --    1.31036   1.33529   1.34389   1.34398   1.36999
 Alpha virt. eigenvalues --    1.37133   1.38072   1.41387   1.42283   1.44856
 Alpha virt. eigenvalues --    1.46979   1.50416   1.57222   1.59222   1.59867
 Alpha virt. eigenvalues --    1.60631   1.60663   1.61828   1.63088   1.63137
 Alpha virt. eigenvalues --    1.66337   1.67134   1.75292   1.78417   1.86946
 Alpha virt. eigenvalues --    2.14367   2.15076   2.32397   2.39170   2.40856
 Alpha virt. eigenvalues --    2.50501   2.98927   3.08178   3.24898   3.26489
 Alpha virt. eigenvalues --    3.26493   3.26565   3.29691   3.30050   3.35633
 Alpha virt. eigenvalues --    3.35731   3.36982   3.37085   3.40216   3.40355
 Alpha virt. eigenvalues --    3.42043   3.42903   3.43115   3.43267   3.45161
 Alpha virt. eigenvalues --    3.46596   3.46752   3.46776   3.46778   3.47036
 Alpha virt. eigenvalues --    3.47278   3.47499   3.52544   3.53674   3.56166
 Alpha virt. eigenvalues --    3.73941   3.77126   3.97534   3.97690   3.99016
 Alpha virt. eigenvalues --    4.04934   4.17051   4.33814   4.34969   4.63857
 Alpha virt. eigenvalues --    4.64770   4.88438   4.93914   4.95358   5.50102
 Alpha virt. eigenvalues --    5.76832   5.80058   5.80367   5.81400   5.81682
 Alpha virt. eigenvalues --    5.89273   5.90135   5.91409   6.49725   6.50136
 Alpha virt. eigenvalues --    7.60851   8.52074   9.28372   9.28460   9.29146
 Alpha virt. eigenvalues --    9.29163   9.31475   9.31485   9.40415   9.40415
 Alpha virt. eigenvalues --    9.40526   9.40533   9.40591   9.40864   9.41230
 Alpha virt. eigenvalues --    9.52180   9.53273   9.68415   9.69142   9.69658
 Alpha virt. eigenvalues --    9.78326   9.78531   9.80031   9.80488   9.83838
 Alpha virt. eigenvalues --    9.83922   9.88270   9.88718   9.88782   9.91917
 Alpha virt. eigenvalues --    9.94120   9.99738  10.00136  10.13042  10.18646
 Alpha virt. eigenvalues --   10.19595  10.54210  10.66764  11.35909  13.64920
 Alpha virt. eigenvalues --   15.54600
          Condensed to atoms (all electrons):
               1          2          3          4
     1  F   10.024377  -0.008311  -0.002043  -0.008311
     2  F   -0.008311   9.810492   0.089414  -0.122928
     3  H   -0.002043   0.089414   0.280165   0.089414
     4  F   -0.008311  -0.122928   0.089414   9.810492
 Mulliken charges:
               1
     1  F   -1.005713
     2  F   -0.768668
     3  H    0.543049
     4  F   -0.768668
 Sum of Mulliken charges =  -2.00000
 Mulliken charges with hydrogens summed into heavy atoms:
               1
     1  F   -1.005713
     2  F   -0.225619
     4  F   -0.768668
 Electronic spatial extent (au):  <R**2>=            412.1441
 Charge=             -2.0000 electrons
 Dipole moment (field-independent basis, Debye):
    X=              0.0000    Y=              0.0000    Z=             -5.6831  Tot=              5.6831
 Quadrupole moment (field-independent basis, Debye-Ang):
   XX=            -19.8759   YY=            -29.3610   ZZ=            -53.8483
   XY=             -0.0000   XZ=             -0.0000   YZ=             -0.0000
 Traceless Quadrupole moment (field-independent basis, Debye-Ang):
   XX=             14.4858   YY=              5.0007   ZZ=            -19.4865
   XY=             -0.0000   XZ=             -0.0000   YZ=             -0.0000
 Octapole moment (field-independent basis, Debye-Ang**2):
  XXX=              0.0000  YYY=             -0.0000  ZZZ=            -64.9335  XYY=              0.0000
  XXY=             -0.0000  XXZ=             -2.8308  XZZ=              0.0000  YZZ=              0.0000
  YYZ=              8.2003  XYZ=              0.0000
 Hexadecapole moment (field-independent basis, Debye-Ang**3):
 XXXX=            -18.7458 YYYY=           -125.7445 ZZZZ=           -509.8030 XXXY=             -0.0000
 XXXZ=             -0.0000 YYYX=             -0.0000 YYYZ=             -0.0000 ZZZX=             -0.0000
 ZZZY=             -0.0000 XXYY=            -22.5668 XXZZ=            -61.2570 YYZZ=            -90.1624
 XXYZ=              0.0000 YYXZ=             -0.0000 ZZXY=             -0.0000
 N-N= 5.248762178833D+01 E-N=-8.380859083561D+02  KE= 2.988579271305D+02
 Symmetry A1   KE= 1.805798641861D+02
 Symmetry A2   KE= 6.139427896256D+00
 Symmetry B1   KE= 1.142698961934D+01
 Symmetry B2   KE= 1.007116454287D+02
 1\1\GINC-HELIOS\SP\RCCSD-FC\Aug-CC-pVTZ\F3H1(2-)\POHL\08-May-2025\0\\#
  CCSD/aug-cc-pVTZ SP\\Single-point energy of X- + Y- at fixed distance
  R\\-2,1\F,0,0.,0.,3.4\F,0,-1.139,0.,0.\H,0,0.,0.,0.\F,0,1.139,0.,0.\\
 Version=EM64L-G16RevB.01\State=1-A1\HF=-298.8885957\MP2=-299.7654582\M
 P3=-299.7415622\MP4D=-299.7576088\MP4DQ=-299.7474413\MP4SDQ=-299.75948
 25\CCSD=-299.7531799\RMSD=9.995e-09\PG=C02V [C2(H1F1),SGV(F2)]\\@


 LAW OF COMPENSATION:
      NO CALCULATION IS EVER A COMPLETE FAILURE; IT 
      CAN ALWAYS SERVE AS A BAD EXAMPLE.

                                           -- ANON
 Job cpu time:       0 days  0 hours  5 minutes  5.0 seconds.
 Elapsed time:       0 days  0 hours  0 minutes 30.6 seconds.
 File lengths (MBytes):  RWF=    721 Int=      0 D2E=      0 Chk=      3 Scr=      1
 Normal termination of Gaussian 16 at Thu May  8 14:41:41 2025.
