 Entering Gaussian System, Link 0=g16
 Initial command:
 /opt/g16/l1.exe "/home/pohl/scratches/g16/Gau-1322798.inp" -scrdir="/home/pohl/scratches/g16/"
 Entering Link 1 = /opt/g16/l1.exe PID=   1322800.
  
 Copyright (c) 1988-2017, Gaussian, Inc.  All Rights Reserved.
  
 This is part of the Gaussian(R) 16 program.  It is based on
 the Gaussian(R) 09 system (copyright 2009, Gaussian, Inc.),
 the Gaussian(R) 03 system (copyright 2003, Gaussian, Inc.),
 the Gaussian(R) 98 system (copyright 1998, Gaussian, Inc.),
 the Gaussian(R) 94 system (copyright 1995, Gaussian, Inc.),
 the Gaussian 92(TM) system (copyright 1992, Gaussian, Inc.),
 the Gaussian 90(TM) system (copyright 1990, Gaussian, Inc.),
 the Gaussian 88(TM) system (copyright 1988, Gaussian, Inc.),
 the Gaussian 86(TM) system (copyright 1986, Carnegie Mellon
 University), and the Gaussian 82(TM) system (copyright 1983,
 Carnegie Mellon University). Gaussian is a federally registered
 trademark of Gaussian, Inc.
  
 This software contains proprietary and confidential information,
 including trade secrets, belonging to Gaussian, Inc.
  
 This software is provided under written license and may be
 used, copied, transmitted, or stored only in accord with that
 written license.
  
 The following legend is applicable only to US Government
 contracts under FAR:
  
                    RESTRICTED RIGHTS LEGEND
  
 Use, reproduction and disclosure by the US Government is
 subject to restrictions as set forth in subparagraphs (a)
 and (c) of the Commercial Computer Software - Restricted
 Rights clause in FAR 52.227-19.
  
 Gaussian, Inc.
 340 Quinnipiac St., Bldg. 40, Wallingford CT 06492
  
  
 ---------------------------------------------------------------
 Warning -- This program may not be used in any manner that
 competes with the business of Gaussian, Inc. or will provide
 assistance to any competitor of Gaussian, Inc.  The licensee
 of this program is prohibited from giving any competitor of
 Gaussian, Inc. access to this program.  By using this program,
 the user acknowledges that Gaussian, Inc. is engaged in the
 business of creating and licensing software in the field of
 computational chemistry and represents and warrants to the
 licensee that it is not a competitor of Gaussian, Inc. and that
 it will not use this program in any manner prohibited above.
 ---------------------------------------------------------------
  

 Cite this work as:
 Gaussian 16, Revision B.01,
 M. J. Frisch, G. W. Trucks, H. B. Schlegel, G. E. Scuseria, 
 M. A. Robb, J. R. Cheeseman, G. Scalmani, V. Barone, 
 G. A. Petersson, H. Nakatsuji, X. Li, M. Caricato, A. V. Marenich, 
 J. Bloino, B. G. Janesko, R. Gomperts, B. Mennucci, H. P. Hratchian, 
 J. V. Ortiz, A. F. Izmaylov, J. L. Sonnenberg, D. Williams-Young, 
 F. Ding, F. Lipparini, F. Egidi, J. Goings, B. Peng, A. Petrone, 
 T. Henderson, D. Ranasinghe, V. G. Zakrzewski, J. Gao, N. Rega, 
 G. Zheng, W. Liang, M. Hada, M. Ehara, K. Toyota, R. Fukuda, 
 J. Hasegawa, M. Ishida, T. Nakajima, Y. Honda, O. Kitao, H. Nakai, 
 T. Vreven, K. Throssell, J. A. Montgomery, Jr., J. E. Peralta, 
 F. Ogliaro, M. J. Bearpark, J. J. Heyd, E. N. Brothers, K. N. Kudin, 
 V. N. Staroverov, T. A. Keith, R. Kobayashi, J. Normand, 
 K. Raghavachari, A. P. Rendell, J. C. Burant, S. S. Iyengar, 
 J. Tomasi, M. Cossi, J. M. Millam, M. Klene, C. Adamo, R. Cammi, 
 J. W. Ochterski, R. L. Martin, K. Morokuma, O. Farkas, 
 J. B. Foresman, and D. J. Fox, Gaussian, Inc., Wallingford CT, 2016.
 
 ******************************************
 Gaussian 16:  EM64L-G16RevB.01 20-Dec-2017
                 8-May-2025 
 ******************************************
 %mem=30GB
 %nprocshared=10
 Will use up to   10 processors via shared memory.
 ---------------------
 # CCSD/aug-cc-pVTZ SP
 ---------------------
 1/38=1,172=1/1;
 2/12=2,17=6,18=5,40=1/2;
 3/5=16,6=1,7=10,11=9,25=1,30=1/1,2,3;
 4//1;
 5/5=2,38=5/2;
 8/6=4,9=120000,10=1/1,4;
 9/5=7/13;
 6/7=2,8=2,9=2,10=2/1;
 99/5=1,9=1/99;
 --------------------------------------------------
 Single-point energy of X- + Y- at fixed distance R
 --------------------------------------------------
 Symbolic Z-matrix:
 Charge = -2 Multiplicity = 1
 F                     0.        0.        3.5 
 F                    -1.139     0.        0. 
 H                     0.        0.        0. 
 F                     1.139     0.        0. 
 
                          Input orientation:                          
 ---------------------------------------------------------------------
 Center     Atomic      Atomic             Coordinates (Angstroms)
 Number     Number       Type             X           Y           Z
 ---------------------------------------------------------------------
      1          9           0        0.000000    0.000000    3.500000
      2          9           0       -1.139000    0.000000    0.000000
      3          1           0        0.000000    0.000000    0.000000
      4          9           0        1.139000    0.000000    0.000000
 ---------------------------------------------------------------------
                    Distance matrix (angstroms):
                    1          2          3          4
     1  F    0.000000
     2  F    3.680669   0.000000
     3  H    3.500000   1.139000   0.000000
     4  F    3.680669   2.278000   1.139000   0.000000
 Stoichiometry    F3H(2-)
 Framework group  C2V[C2(HF),SGV(F2)]
 Deg. of freedom     3
 Full point group                 C2V     NOp   4
 Largest Abelian subgroup         C2V     NOp   4
 Largest concise Abelian subgroup C2      NOp   2
                         Standard orientation:                         
 ---------------------------------------------------------------------
 Center     Atomic      Atomic             Coordinates (Angstroms)
 Number     Number       Type             X           Y           Z
 ---------------------------------------------------------------------
      1          9           0       -0.000000    0.000000    2.375000
      2          9           0        0.000000    1.139000   -1.125000
      3          1           0        0.000000   -0.000000   -1.125000
      4          9           0       -0.000000   -1.139000   -1.125000
 ---------------------------------------------------------------------
 Rotational constants (GHZ):          10.2523318           3.2292268           2.4557327
 Standard basis: Aug-CC-pVTZ (5D, 7F)
 There are    74 symmetry adapted cartesian basis functions of A1  symmetry.
 There are    25 symmetry adapted cartesian basis functions of A2  symmetry.
 There are    36 symmetry adapted cartesian basis functions of B1  symmetry.
 There are    55 symmetry adapted cartesian basis functions of B2  symmetry.
 There are    60 symmetry adapted basis functions of A1  symmetry.
 There are    23 symmetry adapted basis functions of A2  symmetry.
 There are    32 symmetry adapted basis functions of B1  symmetry.
 There are    46 symmetry adapted basis functions of B2  symmetry.
   161 basis functions,   243 primitive gaussians,   190 cartesian basis functions
    15 alpha electrons       15 beta electrons
       nuclear repulsion energy        51.8307987614 Hartrees.
 NAtoms=    4 NActive=    4 NUniq=    3 SFac= 1.78D+00 NAtFMM=   60 NAOKFM=F Big=F
 Integral buffers will be    131072 words long.
 Raffenetti 1 integral format.
 Two-electron integral symmetry is turned on.
 One-electron integrals computed using PRISM.
 NBasis=   161 RedAO= T EigKep=  2.93D-04  NBF=    60    23    32    46
 NBsUse=   161 1.00D-06 EigRej= -1.00D+00 NBFU=    60    23    32    46
 ExpMin= 2.53D-02 ExpMax= 1.95D+04 ExpMxC= 6.65D+02 IAcc=3 IRadAn=         5 AccDes= 0.00D+00
 Harris functional with IExCor=  205 and IRadAn=       5 diagonalized for initial guess.
 HarFok:  IExCor=  205 AccDes= 0.00D+00 IRadAn=         5 IDoV= 1 UseB2=F ITyADJ=14
 ICtDFT=  3500011 ScaDFX=  1.000000  1.000000  1.000000  1.000000
 FoFCou: FMM=F IPFlag=           0 FMFlag=      100000 FMFlg1=           0
         NFxFlg=           0 DoJE=T BraDBF=F KetDBF=T FulRan=T
         wScrn=  0.000000 ICntrl=       500 IOpCl=  0 I1Cent=   200000004 NGrid=           0
         NMat0=    1 NMatS0=      1 NMatT0=    0 NMatD0=    1 NMtDS0=    0 NMtDT0=    0
 Petite list used in FoFCou.
 Initial guess orbital symmetries:
       Occupied  (A1) (B2) (A1) (A1) (B2) (A1) (A1) (A1) (B1) (B2)
                 (B2) (A2) (B1) (B2) (A1)
       Virtual   (A1) (A1) (B2) (B1) (A1) (A1) (B2) (B1) (A1) (A2)
                 (B2) (A1) (B2) (A1) (B1) (A1) (A1) (B2) (B1) (A1)
                 (B2) (A1) (A2) (B1) (A1) (A2) (B1) (B2) (A1) (A2)
                 (A1) (B2) (B1) (A1) (B1) (B2) (A2) (B2) (A1) (B2)
                 (A1) (B1) (A1) (B2) (A1) (A1) (B1) (A1) (B2) (A2)
                 (B2) (B2) (A1) (B1) (A1) (B2) (A2) (B2) (A2) (A1)
                 (A2) (B1) (B2) (A1) (A1) (B1) (B1) (A2) (B2) (A1)
                 (B2) (B1) (A2) (B1) (A1) (B2) (A1) (A2) (B2) (A1)
                 (B1) (A1) (B2) (A2) (B2) (A1) (B2) (B1) (A1) (B1)
                 (A1) (A1) (B1) (A1) (A1) (B1) (B2) (A1) (B1) (A1)
                 (B2) (A2) (B2) (A2) (B2) (B2) (A1) (B1) (A1) (A2)
                 (B2) (B1) (B2) (A2) (A1) (B1) (B2) (A1) (A2) (B2)
                 (B1) (A1) (B2) (B2) (A2) (A1) (A2) (B2) (B1) (A2)
                 (A1) (B2) (B1) (B1) (A1) (A1) (B1) (A1) (A1) (A2)
                 (B2) (A1) (B2) (A1) (B2) (A1)
 The electronic state of the initial guess is 1-A1.
 Keep R1 ints in memory in symmetry-blocked form, NReq=106592091.
 Requested convergence on RMS density matrix=1.00D-08 within 128 cycles.
 Requested convergence on MAX density matrix=1.00D-06.
 Requested convergence on             energy=1.00D-06.
 No special actions if energy rises.
 SCF Done:  E(RHF) =  -298.891755493     A.U. after   10 cycles
            NFock= 10  Conv=0.93D-08     -V/T= 2.0001
 ExpMin= 2.53D-02 ExpMax= 1.95D+04 ExpMxC= 6.65D+02 IAcc=3 IRadAn=         5 AccDes= 0.00D+00
 HarFok:  IExCor=  205 AccDes= 0.00D+00 IRadAn=         5 IDoV=-2 UseB2=F ITyADJ=14
 ICtDFT= 12500011 ScaDFX=  1.000000  1.000000  1.000000  1.000000
 Range of M.O.s used for correlation:     4   161
 NBasis=   161 NAE=    15 NBE=    15 NFC=     3 NFV=     0
 NROrb=    158 NOA=    12 NOB=    12 NVA=   146 NVB=   146

 **** Warning!!: The largest alpha MO coefficient is  0.20079106D+02

 Semi-Direct transformation.
 ModeAB=           4 MOrb=            12 LenV=    4025764467
 LASXX=      5679395 LTotXX=     5679395 LenRXX=    11479218
 LTotAB=     5799823 MaxLAS=    20249280 LenRXY=           0
 NonZer=    17158613 LenScr=    26512384 LnRSAI=    20249280
 LnScr1=    31150080 LExtra=           0 Total=     89390962
 MaxDsk=          -1 SrtSym=           T ITran=            4
 JobTyp=0 Pass  1:  I=   1 to  12.
 (rs|ai) integrals will be sorted in core.
 Spin components of T(2) and E(2):
     alpha-alpha T2 =       0.2541983353D-01 E2=     -0.1157400355D+00
     alpha-beta  T2 =       0.1300679757D+00 E2=     -0.6452111075D+00
     beta-beta   T2 =       0.2541983353D-01 E2=     -0.1157400355D+00
 ANorm=    0.1086695745D+01
 E2 =    -0.8766911785D+00 EUMP2 =    -0.29976844667159D+03
 Keep R2 and R3 ints in memory in symmetry-blocked form, NReq=106598451.
 CIDS: In Core Option IDoMem=           1.
 Iterations=  50 Convergence= 0.100D-06
 Produce multiple copies of IABC intergrals
 Iteration Nr.   1
 **********************
 DD1Dir will call FoFMem   1 times, MxPair=       156
 NAB=    78 NAA=     0 NBB=     0.
 MP4(R+Q)=  0.10153227D-01
 E3=        0.23849886D-01        EUMP3=      -0.29974459679D+03
 E4(DQ)=   -0.58748466D-02        UMP4(DQ)=   -0.29975047163D+03
 E4(SDQ)=  -0.17873712D-01        UMP4(SDQ)=  -0.29976247050D+03
 DE(Corr)= -0.84176684     E(Corr)=     -299.73352234    
 NORM(A)=   0.10808123D+01
 Iteration Nr.   2
 **********************
 DD1Dir will call FoFMem   1 times, MxPair=       156
 NAB=    78 NAA=     0 NBB=     0.
 DE(Corr)= -0.86529925     E(CORR)=     -299.75705474     Delta=-2.35D-02
 NORM(A)=   0.10864854D+01
 Iteration Nr.   3
 **********************
 DD1Dir will call FoFMem   1 times, MxPair=       156
 NAB=    78 NAA=     0 NBB=     0.
 DE(Corr)= -0.86225018     E(CORR)=     -299.75400567     Delta= 3.05D-03
 NORM(A)=   0.10888240D+01
 Iteration Nr.   4
 **********************
 DD1Dir will call FoFMem   1 times, MxPair=       156
 NAB=    78 NAA=     0 NBB=     0.
 DE(Corr)= -0.86422073     E(CORR)=     -299.75597622     Delta=-1.97D-03
 NORM(A)=   0.10897443D+01
 Iteration Nr.   5
 **********************
 DD1Dir will call FoFMem   1 times, MxPair=       156
 NAB=    78 NAA=     0 NBB=     0.
 DE(Corr)= -0.86442521     E(CORR)=     -299.75618070     Delta=-2.04D-04
 NORM(A)=   0.10899638D+01
 Iteration Nr.   6
 **********************
 DD1Dir will call FoFMem   1 times, MxPair=       156
 NAB=    78 NAA=     0 NBB=     0.
 DE(Corr)= -0.86443532     E(CORR)=     -299.75619081     Delta=-1.01D-05
 NORM(A)=   0.10900373D+01
 Iteration Nr.   7
 **********************
 DD1Dir will call FoFMem   1 times, MxPair=       156
 NAB=    78 NAA=     0 NBB=     0.
 DE(Corr)= -0.86443285     E(CORR)=     -299.75618834     Delta= 2.47D-06
 NORM(A)=   0.10900484D+01
 Iteration Nr.   8
 **********************
 DD1Dir will call FoFMem   1 times, MxPair=       156
 NAB=    78 NAA=     0 NBB=     0.
 DE(Corr)= -0.86443979     E(CORR)=     -299.75619529     Delta=-6.94D-06
 NORM(A)=   0.10900535D+01
 Iteration Nr.   9
 **********************
 DD1Dir will call FoFMem   1 times, MxPair=       156
 NAB=    78 NAA=     0 NBB=     0.
 DE(Corr)= -0.86443168     E(CORR)=     -299.75618718     Delta= 8.11D-06
 NORM(A)=   0.10900561D+01
 Iteration Nr.  10
 **********************
 DD1Dir will call FoFMem   1 times, MxPair=       156
 NAB=    78 NAA=     0 NBB=     0.
 DE(Corr)= -0.86443517     E(CORR)=     -299.75619067     Delta=-3.49D-06
 NORM(A)=   0.10900551D+01
 Iteration Nr.  11
 **********************
 DD1Dir will call FoFMem   1 times, MxPair=       156
 NAB=    78 NAA=     0 NBB=     0.
 DE(Corr)= -0.86443374     E(CORR)=     -299.75618923     Delta= 1.43D-06
 NORM(A)=   0.10900544D+01
 Iteration Nr.  12
 **********************
 DD1Dir will call FoFMem   1 times, MxPair=       156
 NAB=    78 NAA=     0 NBB=     0.
 DE(Corr)= -0.86443371     E(CORR)=     -299.75618920     Delta= 3.08D-08
 NORM(A)=   0.10900537D+01
 Wavefunction amplitudes converged. E(Corr)=     -299.75618920    
 Largest amplitude= 3.49D-02
 Discarding MO integrals.

 **********************************************************************

            Population analysis using the SCF Density.

 **********************************************************************

 Orbital symmetries:
       Occupied  (B2) (A1) (A1) (A1) (B2) (A1) (A1) (B1) (A1) (A2)
                 (B2) (B2) (B1) (B2) (A1)
       Virtual   (A1) (B2) (A1) (B1) (A1) (A2) (B2) (B1) (A1) (B2)
                 (A1) (B2) (A1) (B1) (A1) (A1) (B2) (A1) (B1) (A1)
                 (B2) (A2) (A1) (B1) (A2) (A1) (B1) (A1) (B2) (A2)
                 (B2) (A1) (B1) (A1) (A2) (A1) (B2) (B1) (B2) (A1)
                 (B2) (B1) (B2) (A1) (A1) (B1) (A1) (A1) (A2) (B2)
                 (B2) (B2) (A1) (B1) (A1) (A2) (B2) (B2) (A2) (A1)
                 (B1) (B2) (A2) (B1) (A1) (A2) (A1) (B1) (B2) (A2)
                 (B2) (B1) (B2) (A1) (A2) (B1) (A1) (B2) (A1) (A1)
                 (B1) (A1) (B2) (A2) (B2) (A1) (B2) (B1) (A1) (B1)
                 (A1) (A1) (B1) (A1) (A1) (B2) (A1) (B1) (B1) (B2)
                 (A1) (A2) (B2) (A2) (B2) (B2) (A1) (B1) (A1) (A2)
                 (B2) (A2) (B2) (B1) (B2) (A2) (A1) (B1) (B2) (A1)
                 (B1) (A1) (B2) (A2) (B2) (B2) (A2) (B1) (A1) (B1)
                 (A1) (A2) (A1) (B1) (B2) (A1) (B1) (A1) (A1) (A2)
                 (B2) (A1) (B2) (A1) (B2) (A1)
 The electronic state is 1-A1.
 Alpha  occ. eigenvalues --  -25.81952 -25.81950 -25.70012  -1.12102  -1.07416
 Alpha  occ. eigenvalues --   -0.94182  -0.33032  -0.19294  -0.19166  -0.16663
 Alpha  occ. eigenvalues --   -0.16578  -0.14628  -0.04671  -0.04671  -0.04619
 Alpha virt. eigenvalues --    0.30479   0.41024   0.46810   0.47822   0.50141
 Alpha virt. eigenvalues --    0.55646   0.56619   0.57728   0.57747   0.59683
 Alpha virt. eigenvalues --    0.60637   0.69138   0.73588   0.75478   0.78369
 Alpha virt. eigenvalues --    0.86166   1.03940   1.05978   1.14567   1.16049
 Alpha virt. eigenvalues --    1.31273   1.33440   1.33936   1.34120   1.36461
 Alpha virt. eigenvalues --    1.36862   1.37335   1.40300   1.40883   1.44556
 Alpha virt. eigenvalues --    1.46755   1.48674   1.56853   1.59168   1.59535
 Alpha virt. eigenvalues --    1.60288   1.60360   1.61498   1.62281   1.62990
 Alpha virt. eigenvalues --    1.66189   1.66671   1.74414   1.76816   1.86346
 Alpha virt. eigenvalues --    2.14032   2.14974   2.30817   2.38869   2.40370
 Alpha virt. eigenvalues --    2.50023   2.98607   3.08011   3.24603   3.26044
 Alpha virt. eigenvalues --    3.26174   3.26234   3.29498   3.29740   3.35375
 Alpha virt. eigenvalues --    3.35418   3.36698   3.36752   3.39910   3.39933
 Alpha virt. eigenvalues --    3.41743   3.42483   3.42659   3.42946   3.44790
 Alpha virt. eigenvalues --    3.46204   3.46465   3.46470   3.46478   3.46704
 Alpha virt. eigenvalues --    3.46916   3.47059   3.50436   3.52334   3.55145
 Alpha virt. eigenvalues --    3.73460   3.75933   3.97217   3.97383   3.98586
 Alpha virt. eigenvalues --    4.04547   4.16584   4.33491   4.34517   4.63481
 Alpha virt. eigenvalues --    4.64204   4.88074   4.93569   4.94952   5.49738
 Alpha virt. eigenvalues --    5.76496   5.79659   5.79703   5.81051   5.81307
 Alpha virt. eigenvalues --    5.88846   5.89812   5.90972   6.49395   6.49791
 Alpha virt. eigenvalues --    7.60507   8.51732   9.28037   9.28109   9.28817
 Alpha virt. eigenvalues --    9.28831   9.31149   9.31156   9.40129   9.40129
 Alpha virt. eigenvalues --    9.40233   9.40239   9.40292   9.40505   9.40874
 Alpha virt. eigenvalues --    9.51805   9.52608   9.67909   9.68819   9.69183
 Alpha virt. eigenvalues --    9.78100   9.78216   9.79706   9.80165   9.83500
 Alpha virt. eigenvalues --    9.83668   9.87948   9.88279   9.88350   9.90940
 Alpha virt. eigenvalues --    9.92959   9.99412   9.99763  10.12620  10.18322
 Alpha virt. eigenvalues --   10.19140  10.53856  10.66409  11.33141  13.64376
 Alpha virt. eigenvalues --   15.54114
          Condensed to atoms (all electrons):
               1          2          3          4
     1  F   10.020496  -0.007215  -0.001183  -0.007215
     2  F   -0.007215   9.806177   0.090079  -0.121587
     3  H   -0.001183   0.090079   0.281236   0.090079
     4  F   -0.007215  -0.121587   0.090079   9.806177
 Mulliken charges:
               1
     1  F   -1.004882
     2  F   -0.767454
     3  H    0.539789
     4  F   -0.767454
 Sum of Mulliken charges =  -2.00000
 Mulliken charges with hydrogens summed into heavy atoms:
               1
     1  F   -1.004882
     2  F   -0.227664
     4  F   -0.767454
 Electronic spatial extent (au):  <R**2>=            428.5066
 Charge=             -2.0000 electrons
 Dipole moment (field-independent basis, Debye):
    X=              0.0000    Y=              0.0000    Z=             -5.8604  Tot=              5.8604
 Quadrupole moment (field-independent basis, Debye-Ang):
   XX=            -19.8649   YY=            -29.3262   ZZ=            -55.6619
   XY=             -0.0000   XZ=             -0.0000   YZ=             -0.0000
 Traceless Quadrupole moment (field-independent basis, Debye-Ang):
   XX=             15.0861   YY=              5.6248   ZZ=            -20.7109
   XY=             -0.0000   XZ=             -0.0000   YZ=             -0.0000
 Octapole moment (field-independent basis, Debye-Ang**2):
  XXX=              0.0000  YYY=              0.0000  ZZZ=            -69.9975  XYY=              0.0000
  XXY=             -0.0000  XXZ=             -2.9094  XZZ=              0.0000  YZZ=             -0.0000
  YYZ=              8.3697  XYZ=              0.0000
 Hexadecapole moment (field-independent basis, Debye-Ang**3):
 XXXX=            -18.7012 YYYY=           -125.5221 ZZZZ=           -546.8994 XXXY=             -0.0000
 XXXZ=             -0.0000 YYYX=             -0.0000 YYYZ=             -0.0000 ZZZX=             -0.0000
 ZZZY=              0.0000 XXYY=            -22.5314 XXZZ=            -64.3743 YYZZ=            -93.8899
 XXYZ=             -0.0000 YYXZ=             -0.0000 ZZXY=             -0.0000
 N-N= 5.183079876138D+01 E-N=-8.366851857086D+02  KE= 2.988587745822D+02
 Symmetry A1   KE= 1.805764038664D+02
 Symmetry A2   KE= 6.140624211606D+00
 Symmetry B1   KE= 1.142942572895D+01
 Symmetry B2   KE= 1.007123207753D+02
 1\1\GINC-HELIOS\SP\RCCSD-FC\Aug-CC-pVTZ\F3H1(2-)\POHL\08-May-2025\0\\#
  CCSD/aug-cc-pVTZ SP\\Single-point energy of X- + Y- at fixed distance
  R\\-2,1\F,0,0.,0.,3.5\F,0,-1.139,0.,0.\H,0,0.,0.,0.\F,0,1.139,0.,0.\\
 Version=EM64L-G16RevB.01\State=1-A1\HF=-298.8917555\MP2=-299.7684467\M
 P3=-299.7445968\MP4D=-299.7606249\MP4DQ=-299.7504716\MP4SDQ=-299.76247
 05\CCSD=-299.7561892\RMSD=9.258e-09\PG=C02V [C2(H1F1),SGV(F2)]\\@


 GARBAGE IN, GARBAGE OUT
 Job cpu time:       0 days  0 hours  5 minutes  3.6 seconds.
 Elapsed time:       0 days  0 hours  0 minutes 30.5 seconds.
 File lengths (MBytes):  RWF=    720 Int=      0 D2E=      0 Chk=      3 Scr=      1
 Normal termination of Gaussian 16 at Thu May  8 14:42:12 2025.
