 Entering Gaussian System, Link 0=g16
 Initial command:
 /opt/g16/l1.exe "/home/pohl/scratches/g16/Gau-1323061.inp" -scrdir="/home/pohl/scratches/g16/"
 Entering Link 1 = /opt/g16/l1.exe PID=   1323063.
  
 Copyright (c) 1988-2017, Gaussian, Inc.  All Rights Reserved.
  
 This is part of the Gaussian(R) 16 program.  It is based on
 the Gaussian(R) 09 system (copyright 2009, Gaussian, Inc.),
 the Gaussian(R) 03 system (copyright 2003, Gaussian, Inc.),
 the Gaussian(R) 98 system (copyright 1998, Gaussian, Inc.),
 the Gaussian(R) 94 system (copyright 1995, Gaussian, Inc.),
 the Gaussian 92(TM) system (copyright 1992, Gaussian, Inc.),
 the Gaussian 90(TM) system (copyright 1990, Gaussian, Inc.),
 the Gaussian 88(TM) system (copyright 1988, Gaussian, Inc.),
 the Gaussian 86(TM) system (copyright 1986, Carnegie Mellon
 University), and the Gaussian 82(TM) system (copyright 1983,
 Carnegie Mellon University). Gaussian is a federally registered
 trademark of Gaussian, Inc.
  
 This software contains proprietary and confidential information,
 including trade secrets, belonging to Gaussian, Inc.
  
 This software is provided under written license and may be
 used, copied, transmitted, or stored only in accord with that
 written license.
  
 The following legend is applicable only to US Government
 contracts under FAR:
  
                    RESTRICTED RIGHTS LEGEND
  
 Use, reproduction and disclosure by the US Government is
 subject to restrictions as set forth in subparagraphs (a)
 and (c) of the Commercial Computer Software - Restricted
 Rights clause in FAR 52.227-19.
  
 Gaussian, Inc.
 340 Quinnipiac St., Bldg. 40, Wallingford CT 06492
  
  
 ---------------------------------------------------------------
 Warning -- This program may not be used in any manner that
 competes with the business of Gaussian, Inc. or will provide
 assistance to any competitor of Gaussian, Inc.  The licensee
 of this program is prohibited from giving any competitor of
 Gaussian, Inc. access to this program.  By using this program,
 the user acknowledges that Gaussian, Inc. is engaged in the
 business of creating and licensing software in the field of
 computational chemistry and represents and warrants to the
 licensee that it is not a competitor of Gaussian, Inc. and that
 it will not use this program in any manner prohibited above.
 ---------------------------------------------------------------
  

 Cite this work as:
 Gaussian 16, Revision B.01,
 M. J. Frisch, G. W. Trucks, H. B. Schlegel, G. E. Scuseria, 
 M. A. Robb, J. R. Cheeseman, G. Scalmani, V. Barone, 
 G. A. Petersson, H. Nakatsuji, X. Li, M. Caricato, A. V. Marenich, 
 J. Bloino, B. G. Janesko, R. Gomperts, B. Mennucci, H. P. Hratchian, 
 J. V. Ortiz, A. F. Izmaylov, J. L. Sonnenberg, D. Williams-Young, 
 F. Ding, F. Lipparini, F. Egidi, J. Goings, B. Peng, A. Petrone, 
 T. Henderson, D. Ranasinghe, V. G. Zakrzewski, J. Gao, N. Rega, 
 G. Zheng, W. Liang, M. Hada, M. Ehara, K. Toyota, R. Fukuda, 
 J. Hasegawa, M. Ishida, T. Nakajima, Y. Honda, O. Kitao, H. Nakai, 
 T. Vreven, K. Throssell, J. A. Montgomery, Jr., J. E. Peralta, 
 F. Ogliaro, M. J. Bearpark, J. J. Heyd, E. N. Brothers, K. N. Kudin, 
 V. N. Staroverov, T. A. Keith, R. Kobayashi, J. Normand, 
 K. Raghavachari, A. P. Rendell, J. C. Burant, S. S. Iyengar, 
 J. Tomasi, M. Cossi, J. M. Millam, M. Klene, C. Adamo, R. Cammi, 
 J. W. Ochterski, R. L. Martin, K. Morokuma, O. Farkas, 
 J. B. Foresman, and D. J. Fox, Gaussian, Inc., Wallingford CT, 2016.
 
 ******************************************
 Gaussian 16:  EM64L-G16RevB.01 20-Dec-2017
                 8-May-2025 
 ******************************************
 %mem=30GB
 %nprocshared=10
 Will use up to   10 processors via shared memory.
 ---------------------
 # CCSD/aug-cc-pVTZ SP
 ---------------------
 1/38=1,172=1/1;
 2/12=2,17=6,18=5,40=1/2;
 3/5=16,6=1,7=10,11=9,25=1,30=1/1,2,3;
 4//1;
 5/5=2,38=5/2;
 8/6=4,9=120000,10=1/1,4;
 9/5=7/13;
 6/7=2,8=2,9=2,10=2/1;
 99/5=1,9=1/99;
 --------------------------------------------------
 Single-point energy of X- + Y- at fixed distance R
 --------------------------------------------------
 Symbolic Z-matrix:
 Charge = -2 Multiplicity = 1
 F                     0.        0.        3.8 
 F                    -1.139     0.        0. 
 H                     0.        0.        0. 
 F                     1.139     0.        0. 
 
                          Input orientation:                          
 ---------------------------------------------------------------------
 Center     Atomic      Atomic             Coordinates (Angstroms)
 Number     Number       Type             X           Y           Z
 ---------------------------------------------------------------------
      1          9           0        0.000000    0.000000    3.800000
      2          9           0       -1.139000    0.000000    0.000000
      3          1           0        0.000000    0.000000    0.000000
      4          9           0        1.139000    0.000000    0.000000
 ---------------------------------------------------------------------
                    Distance matrix (angstroms):
                    1          2          3          4
     1  F    0.000000
     2  F    3.967029   0.000000
     3  H    3.800000   1.139000   0.000000
     4  F    3.967029   2.278000   1.139000   0.000000
 Stoichiometry    F3H(2-)
 Framework group  C2V[C2(HF),SGV(F2)]
 Deg. of freedom     3
 Full point group                 C2V     NOp   4
 Largest Abelian subgroup         C2V     NOp   4
 Largest concise Abelian subgroup C2      NOp   2
                         Standard orientation:                         
 ---------------------------------------------------------------------
 Center     Atomic      Atomic             Coordinates (Angstroms)
 Number     Number       Type             X           Y           Z
 ---------------------------------------------------------------------
      1          9           0       -0.000000    0.000000    2.578571
      2          9           0        0.000000    1.139000   -1.221429
      3          1           0        0.000000    0.000000   -1.221429
      4          9           0       -0.000000   -1.139000   -1.221429
 ---------------------------------------------------------------------
 Rotational constants (GHZ):          10.2523318           2.7394756           2.1618249
 Standard basis: Aug-CC-pVTZ (5D, 7F)
 There are    74 symmetry adapted cartesian basis functions of A1  symmetry.
 There are    25 symmetry adapted cartesian basis functions of A2  symmetry.
 There are    36 symmetry adapted cartesian basis functions of B1  symmetry.
 There are    55 symmetry adapted cartesian basis functions of B2  symmetry.
 There are    60 symmetry adapted basis functions of A1  symmetry.
 There are    23 symmetry adapted basis functions of A2  symmetry.
 There are    32 symmetry adapted basis functions of B1  symmetry.
 There are    46 symmetry adapted basis functions of B2  symmetry.
   161 basis functions,   243 primitive gaussians,   190 cartesian basis functions
    15 alpha electrons       15 beta electrons
       nuclear repulsion energy        50.0421019317 Hartrees.
 NAtoms=    4 NActive=    4 NUniq=    3 SFac= 1.78D+00 NAtFMM=   60 NAOKFM=F Big=F
 Integral buffers will be    131072 words long.
 Raffenetti 1 integral format.
 Two-electron integral symmetry is turned on.
 One-electron integrals computed using PRISM.
 NBasis=   161 RedAO= T EigKep=  2.93D-04  NBF=    60    23    32    46
 NBsUse=   161 1.00D-06 EigRej= -1.00D+00 NBFU=    60    23    32    46
 ExpMin= 2.53D-02 ExpMax= 1.95D+04 ExpMxC= 6.65D+02 IAcc=3 IRadAn=         5 AccDes= 0.00D+00
 Harris functional with IExCor=  205 and IRadAn=       5 diagonalized for initial guess.
 HarFok:  IExCor=  205 AccDes= 0.00D+00 IRadAn=         5 IDoV= 1 UseB2=F ITyADJ=14
 ICtDFT=  3500011 ScaDFX=  1.000000  1.000000  1.000000  1.000000
 FoFCou: FMM=F IPFlag=           0 FMFlag=      100000 FMFlg1=           0
         NFxFlg=           0 DoJE=T BraDBF=F KetDBF=T FulRan=T
         wScrn=  0.000000 ICntrl=       500 IOpCl=  0 I1Cent=   200000004 NGrid=           0
         NMat0=    1 NMatS0=      1 NMatT0=    0 NMatD0=    1 NMtDS0=    0 NMtDT0=    0
 Petite list used in FoFCou.
 Initial guess orbital symmetries:
       Occupied  (A1) (B2) (A1) (A1) (B2) (A1) (A1) (A1) (B1) (B2)
                 (B2) (A2) (A1) (B1) (B2)
       Virtual   (A1) (A1) (B2) (B1) (A1) (A1) (B2) (B1) (A1) (A2)
                 (B2) (A1) (B2) (A1) (B1) (A1) (A1) (B2) (B1) (A1)
                 (A1) (B2) (A2) (B1) (A1) (A2) (B2) (B1) (A1) (A2)
                 (A1) (B2) (B1) (B1) (B2) (A1) (A2) (B2) (A1) (B2)
                 (A1) (B1) (A1) (B2) (A1) (A1) (B1) (A1) (B2) (A2)
                 (B2) (B2) (A1) (B1) (A1) (B2) (A2) (B2) (A2) (A1)
                 (A2) (B1) (B2) (A1) (B1) (A1) (B1) (A1) (A2) (B2)
                 (B2) (B1) (A2) (A1) (B1) (B2) (A1) (A2) (B2) (A1)
                 (B1) (A1) (B2) (A2) (B2) (A1) (B2) (B1) (A1) (B1)
                 (A1) (A1) (B1) (A1) (A1) (B1) (B2) (A1) (B1) (A1)
                 (B2) (A2) (B2) (A2) (B2) (B2) (A1) (B1) (A1) (A2)
                 (B2) (B1) (B2) (A2) (A1) (B1) (B2) (A1) (A2) (B2)
                 (B1) (A1) (B2) (B2) (A2) (A1) (A2) (B1) (B2) (A2)
                 (A1) (B2) (B1) (A1) (B1) (A1) (B1) (A1) (A1) (A2)
                 (B2) (A1) (B2) (A1) (B2) (A1)
 The electronic state of the initial guess is 1-A1.
 Keep R1 ints in memory in symmetry-blocked form, NReq=106592091.
 Requested convergence on RMS density matrix=1.00D-08 within 128 cycles.
 Requested convergence on MAX density matrix=1.00D-06.
 Requested convergence on             energy=1.00D-06.
 No special actions if energy rises.
 SCF Done:  E(RHF) =  -298.900518492     A.U. after   10 cycles
            NFock= 10  Conv=0.78D-08     -V/T= 2.0001
 ExpMin= 2.53D-02 ExpMax= 1.95D+04 ExpMxC= 6.65D+02 IAcc=3 IRadAn=         5 AccDes= 0.00D+00
 HarFok:  IExCor=  205 AccDes= 0.00D+00 IRadAn=         5 IDoV=-2 UseB2=F ITyADJ=14
 ICtDFT= 12500011 ScaDFX=  1.000000  1.000000  1.000000  1.000000
 Range of M.O.s used for correlation:     4   161
 NBasis=   161 NAE=    15 NBE=    15 NFC=     3 NFV=     0
 NROrb=    158 NOA=    12 NOB=    12 NVA=   146 NVB=   146

 **** Warning!!: The largest alpha MO coefficient is  0.20670130D+02

 Semi-Direct transformation.
 ModeAB=           4 MOrb=            12 LenV=    4025766443
 LASXX=      5679395 LTotXX=     5679395 LenRXX=    11479218
 LTotAB=     5799823 MaxLAS=    19663416 LenRXY=           0
 NonZer=    17158613 LenScr=    26512384 LnRSAI=    19663416
 LnScr1=    30251520 LExtra=           0 Total=     87906538
 MaxDsk=          -1 SrtSym=           T ITran=            4
 JobTyp=0 Pass  1:  I=   1 to  12.
 (rs|ai) integrals will be sorted in core.
 Spin components of T(2) and E(2):
     alpha-alpha T2 =       0.2537391159D-01 E2=     -0.1156607762D+00
     alpha-beta  T2 =       0.1298973332D+00 E2=     -0.6449639872D+00
     beta-beta   T2 =       0.2537391159D-01 E2=     -0.1156607762D+00
 ANorm=    0.1086574966D+01
 E2 =    -0.8762855396D+00 EUMP2 =    -0.29977680403189D+03
 Keep R2 and R3 ints in memory in symmetry-blocked form, NReq=106598451.
 CIDS: In Core Option IDoMem=           1.
 Iterations=  50 Convergence= 0.100D-06
 Produce multiple copies of IABC intergrals
 Iteration Nr.   1
 **********************
 DD1Dir will call FoFMem   1 times, MxPair=       156
 NAB=    78 NAA=     0 NBB=     0.
 MP4(R+Q)=  0.10122097D-01
 E3=        0.23731158D-01        EUMP3=      -0.29975307287D+03
 E4(DQ)=   -0.58594404D-02        UMP4(DQ)=   -0.29975893231D+03
 E4(SDQ)=  -0.17756839D-01        UMP4(SDQ)=  -0.29977082971D+03
 DE(Corr)= -0.84152448     E(Corr)=     -299.74204297    
 NORM(A)=   0.10806740D+01
 Iteration Nr.   2
 **********************
 DD1Dir will call FoFMem   1 times, MxPair=       156
 NAB=    78 NAA=     0 NBB=     0.
 DE(Corr)= -0.86492165     E(CORR)=     -299.76544015     Delta=-2.34D-02
 NORM(A)=   0.10863211D+01
 Iteration Nr.   3
 **********************
 DD1Dir will call FoFMem   1 times, MxPair=       156
 NAB=    78 NAA=     0 NBB=     0.
 DE(Corr)= -0.86192899     E(CORR)=     -299.76244749     Delta= 2.99D-03
 NORM(A)=   0.10886097D+01
 Iteration Nr.   4
 **********************
 DD1Dir will call FoFMem   1 times, MxPair=       156
 NAB=    78 NAA=     0 NBB=     0.
 DE(Corr)= -0.86387314     E(CORR)=     -299.76439163     Delta=-1.94D-03
 NORM(A)=   0.10895046D+01
 Iteration Nr.   5
 **********************
 DD1Dir will call FoFMem   1 times, MxPair=       156
 NAB=    78 NAA=     0 NBB=     0.
 DE(Corr)= -0.86407399     E(CORR)=     -299.76459248     Delta=-2.01D-04
 NORM(A)=   0.10897137D+01
 Iteration Nr.   6
 **********************
 DD1Dir will call FoFMem   1 times, MxPair=       156
 NAB=    78 NAA=     0 NBB=     0.
 DE(Corr)= -0.86408354     E(CORR)=     -299.76460203     Delta=-9.55D-06
 NORM(A)=   0.10897818D+01
 Iteration Nr.   7
 **********************
 DD1Dir will call FoFMem   1 times, MxPair=       156
 NAB=    78 NAA=     0 NBB=     0.
 DE(Corr)= -0.86408118     E(CORR)=     -299.76459967     Delta= 2.36D-06
 NORM(A)=   0.10897915D+01
 Iteration Nr.   8
 **********************
 DD1Dir will call FoFMem   1 times, MxPair=       156
 NAB=    78 NAA=     0 NBB=     0.
 DE(Corr)= -0.86408736     E(CORR)=     -299.76460585     Delta=-6.18D-06
 NORM(A)=   0.10897960D+01
 Iteration Nr.   9
 **********************
 DD1Dir will call FoFMem   1 times, MxPair=       156
 NAB=    78 NAA=     0 NBB=     0.
 DE(Corr)= -0.86408021     E(CORR)=     -299.76459870     Delta= 7.15D-06
 NORM(A)=   0.10897984D+01
 Iteration Nr.  10
 **********************
 DD1Dir will call FoFMem   1 times, MxPair=       156
 NAB=    78 NAA=     0 NBB=     0.
 DE(Corr)= -0.86408320     E(CORR)=     -299.76460169     Delta=-2.99D-06
 NORM(A)=   0.10897976D+01
 Iteration Nr.  11
 **********************
 DD1Dir will call FoFMem   1 times, MxPair=       156
 NAB=    78 NAA=     0 NBB=     0.
 DE(Corr)= -0.86408201     E(CORR)=     -299.76460050     Delta= 1.19D-06
 NORM(A)=   0.10897969D+01
 Iteration Nr.  12
 **********************
 DD1Dir will call FoFMem   1 times, MxPair=       156
 NAB=    78 NAA=     0 NBB=     0.
 DE(Corr)= -0.86408192     E(CORR)=     -299.76460041     Delta= 8.52D-08
 NORM(A)=   0.10897964D+01
 Wavefunction amplitudes converged. E(Corr)=     -299.76460041    
 Largest amplitude= 3.62D-02
 Discarding MO integrals.

 **********************************************************************

            Population analysis using the SCF Density.

 **********************************************************************

 Orbital symmetries:
       Occupied  (B2) (A1) (A1) (A1) (B2) (A1) (A1) (B1) (A1) (A2)
                 (B2) (B2) (B2) (B1) (A1)
       Virtual   (A1) (B2) (A1) (B1) (A1) (A2) (B2) (A1) (B1) (B2)
                 (A1) (B2) (A1) (B1) (A1) (A1) (B2) (A1) (B1) (A1)
                 (B2) (A1) (A2) (B1) (A2) (A1) (B1) (A1) (B2) (A2)
                 (A1) (B2) (B1) (A2) (A1) (B2) (A1) (B2) (B1) (A1)
                 (B1) (B2) (A1) (B2) (A1) (B1) (A1) (A1) (A2) (B2)
                 (B2) (B2) (A1) (B1) (A1) (A2) (B2) (A2) (B2) (B1)
                 (A1) (A2) (B2) (A1) (B1) (A2) (A1) (B1) (B2) (A2)
                 (B2) (A1) (B2) (B1) (A2) (A1) (B1) (B2) (A1) (A1)
                 (B1) (A1) (B2) (A2) (B2) (A1) (B2) (B1) (A1) (B1)
                 (A1) (A1) (B1) (A1) (A1) (B2) (B1) (A1) (B1) (B2)
                 (A1) (A2) (B2) (A2) (B2) (B2) (A1) (B1) (A1) (A2)
                 (B2) (A2) (B2) (B1) (B2) (A2) (A1) (B1) (B2) (A1)
                 (B1) (A1) (B2) (A2) (B2) (A2) (B2) (B1) (A1) (B1)
                 (A1) (A2) (A1) (B1) (B2) (A1) (B1) (A1) (A1) (A2)
                 (B2) (A1) (B2) (A1) (B2) (A1)
 The electronic state is 1-A1.
 Alpha  occ. eigenvalues --  -25.82848 -25.82846 -25.70813  -1.13017  -1.08323
 Alpha  occ. eigenvalues --   -0.94994  -0.33946  -0.20197  -0.20088  -0.17563
 Alpha  occ. eigenvalues --   -0.17492  -0.15518  -0.05486  -0.05486  -0.05448
 Alpha virt. eigenvalues --    0.30098   0.40659   0.46335   0.47162   0.50037
 Alpha virt. eigenvalues --    0.55025   0.55464   0.56793   0.56881   0.59104
 Alpha virt. eigenvalues --    0.60083   0.68091   0.71102   0.74659   0.77227
 Alpha virt. eigenvalues --    0.85088   1.03125   1.04958   1.13663   1.15252
 Alpha virt. eigenvalues --    1.31759   1.32428   1.32891   1.33379   1.35297
 Alpha virt. eigenvalues --    1.35693   1.35810   1.37322   1.37381   1.43710
 Alpha virt. eigenvalues --    1.45109   1.45999   1.55763   1.58616   1.59083
 Alpha virt. eigenvalues --    1.59428   1.59471   1.60236   1.60476   1.62749
 Alpha virt. eigenvalues --    1.65581   1.65909   1.71986   1.72031   1.84219
 Alpha virt. eigenvalues --    2.13099   2.14606   2.26517   2.38027   2.39069
 Alpha virt. eigenvalues --    2.48802   2.97699   3.07244   3.23663   3.24904
 Alpha virt. eigenvalues --    3.25289   3.25478   3.28840   3.28857   3.34490
 Alpha virt. eigenvalues --    3.34534   3.35819   3.35820   3.38715   3.39120
 Alpha virt. eigenvalues --    3.40897   3.41258   3.41295   3.42291   3.43825
 Alpha virt. eigenvalues --    3.44740   3.44985   3.45660   3.45661   3.45842
 Alpha virt. eigenvalues --    3.45861   3.45965   3.46622   3.48757   3.53571
 Alpha virt. eigenvalues --    3.72302   3.73326   3.96331   3.96526   3.97496
 Alpha virt. eigenvalues --    4.03391   4.15210   4.32594   4.33311   4.62471
 Alpha virt. eigenvalues --    4.62841   4.86946   4.92617   4.93663   5.48755
 Alpha virt. eigenvalues --    5.75565   5.78620   5.79088   5.80168   5.80463
 Alpha virt. eigenvalues --    5.86167   5.88919   5.89604   6.48480   6.48822
 Alpha virt. eigenvalues --    7.59545   8.50775   9.27109   9.27157   9.27904
 Alpha virt. eigenvalues --    9.27912   9.30241   9.30246   9.39326   9.39326
 Alpha virt. eigenvalues --    9.39411   9.39416   9.39457   9.39573   9.39823
 Alpha virt. eigenvalues --    9.50831   9.51173   9.66627   9.67923   9.68126
 Alpha virt. eigenvalues --    9.77324   9.77371   9.78814   9.79065   9.82557
 Alpha virt. eigenvalues --    9.82809   9.87091   9.87205   9.87290   9.88650
 Alpha virt. eigenvalues --    9.90216   9.98509   9.98720  10.11614  10.17427
 Alpha virt. eigenvalues --   10.17957  10.52654  10.65438  11.25786  13.63164
 Alpha virt. eigenvalues --   15.53122
          Condensed to atoms (all electrons):
               1          2          3          4
     1  F   10.012512  -0.004956   0.000546  -0.004956
     2  F   -0.004956   9.796249   0.091327  -0.117847
     3  H    0.000546   0.091327   0.284109   0.091327
     4  F   -0.004956  -0.117847   0.091327   9.796249
 Mulliken charges:
               1
     1  F   -1.003147
     2  F   -0.764772
     3  H    0.532691
     4  F   -0.764772
 Sum of Mulliken charges =  -2.00000
 Mulliken charges with hydrogens summed into heavy atoms:
               1
     1  F   -1.003147
     2  F   -0.232081
     4  F   -0.764772
 Electronic spatial extent (au):  <R**2>=            480.4749
 Charge=             -2.0000 electrons
 Dipole moment (field-independent basis, Debye):
    X=              0.0000    Y=              0.0000    Z=             -6.3903  Tot=              6.3903
 Quadrupole moment (field-independent basis, Debye-Ang):
   XX=            -19.8371   YY=            -29.2379   ZZ=            -61.4360
   XY=             -0.0000   XZ=             -0.0000   YZ=              0.0000
 Traceless Quadrupole moment (field-independent basis, Debye-Ang):
   XX=             16.9999   YY=              7.5991   ZZ=            -24.5990
   XY=             -0.0000   XZ=             -0.0000   YZ=              0.0000
 Octapole moment (field-independent basis, Debye-Ang**2):
  XXX=              0.0000  YYY=              0.0000  ZZZ=            -86.8969  XYY=              0.0000
  XXY=              0.0000  XXZ=             -3.1464  XZZ=              0.0000  YZZ=             -0.0000
  YYZ=              8.8920  XYZ=              0.0000
 Hexadecapole moment (field-independent basis, Debye-Ang**3):
 XXXX=            -18.5901 YYYY=           -124.9595 ZZZZ=           -671.3507 XXXY=             -0.0000
 XXXZ=             -0.0000 YYYX=             -0.0000 YYYZ=              0.0000 ZZZX=             -0.0000
 ZZZY=              0.0000 XXYY=            -22.4423 XXZZ=            -74.2916 YYZZ=           -105.7572
 XXYZ=             -0.0000 YYXZ=             -0.0000 ZZXY=             -0.0000
 N-N= 5.004210193175D+01 E-N=-8.328653406463D+02  KE= 2.988614096179D+02
 Symmetry A1   KE= 1.805680293258D+02
 Symmetry A2   KE= 6.143606784296D+00
 Symmetry B1   KE= 1.143537190252D+01
 Symmetry B2   KE= 1.007144016053D+02
 1\1\GINC-HELIOS\SP\RCCSD-FC\Aug-CC-pVTZ\F3H1(2-)\POHL\08-May-2025\0\\#
  CCSD/aug-cc-pVTZ SP\\Single-point energy of X- + Y- at fixed distance
  R\\-2,1\F,0,0.,0.,3.8\F,0,-1.139,0.,0.\H,0,0.,0.,0.\F,0,1.139,0.,0.\\
 Version=EM64L-G16RevB.01\State=1-A1\HF=-298.9005185\MP2=-299.776804\MP
 3=-299.7530729\MP4D=-299.7690544\MP4DQ=-299.7589323\MP4SDQ=-299.770829
 7\CCSD=-299.7646004\RMSD=7.822e-09\PG=C02V [C2(H1F1),SGV(F2)]\\@


 ADAM SMITH SAID, "THE REAL PRICE OF ANYTHING IS THE TOIL AND TROUBLE
 OF ACQUIRING IT."  BUT IN ALL UNDERTAKINGS WITH NATURE WE SHOULD FIRST
 READ CAREFULLY THE SMALL PRINT IN THE CONTRACT. THIS MIGHT DISCLOSE
 THAT THE REAL PRICE IS TO BE PAID BY THOSE WHO INHERIT THE DEPLETION
 AND DESPOILATION THAT FOLLOWS.
                               -- E. R. HARRISON IN "COSMOLOGY" (1980)
 Job cpu time:       0 days  0 hours  4 minutes 58.8 seconds.
 Elapsed time:       0 days  0 hours  0 minutes 30.0 seconds.
 File lengths (MBytes):  RWF=    709 Int=      0 D2E=      0 Chk=      3 Scr=      1
 Normal termination of Gaussian 16 at Thu May  8 14:43:13 2025.
