 Entering Gaussian System, Link 0=g16
 Initial command:
 /opt/g16/l1.exe "/home/pohl/scratches/g16/Gau-1323192.inp" -scrdir="/home/pohl/scratches/g16/"
 Entering Link 1 = /opt/g16/l1.exe PID=   1323194.
  
 Copyright (c) 1988-2017, Gaussian, Inc.  All Rights Reserved.
  
 This is part of the Gaussian(R) 16 program.  It is based on
 the Gaussian(R) 09 system (copyright 2009, Gaussian, Inc.),
 the Gaussian(R) 03 system (copyright 2003, Gaussian, Inc.),
 the Gaussian(R) 98 system (copyright 1998, Gaussian, Inc.),
 the Gaussian(R) 94 system (copyright 1995, Gaussian, Inc.),
 the Gaussian 92(TM) system (copyright 1992, Gaussian, Inc.),
 the Gaussian 90(TM) system (copyright 1990, Gaussian, Inc.),
 the Gaussian 88(TM) system (copyright 1988, Gaussian, Inc.),
 the Gaussian 86(TM) system (copyright 1986, Carnegie Mellon
 University), and the Gaussian 82(TM) system (copyright 1983,
 Carnegie Mellon University). Gaussian is a federally registered
 trademark of Gaussian, Inc.
  
 This software contains proprietary and confidential information,
 including trade secrets, belonging to Gaussian, Inc.
  
 This software is provided under written license and may be
 used, copied, transmitted, or stored only in accord with that
 written license.
  
 The following legend is applicable only to US Government
 contracts under FAR:
  
                    RESTRICTED RIGHTS LEGEND
  
 Use, reproduction and disclosure by the US Government is
 subject to restrictions as set forth in subparagraphs (a)
 and (c) of the Commercial Computer Software - Restricted
 Rights clause in FAR 52.227-19.
  
 Gaussian, Inc.
 340 Quinnipiac St., Bldg. 40, Wallingford CT 06492
  
  
 ---------------------------------------------------------------
 Warning -- This program may not be used in any manner that
 competes with the business of Gaussian, Inc. or will provide
 assistance to any competitor of Gaussian, Inc.  The licensee
 of this program is prohibited from giving any competitor of
 Gaussian, Inc. access to this program.  By using this program,
 the user acknowledges that Gaussian, Inc. is engaged in the
 business of creating and licensing software in the field of
 computational chemistry and represents and warrants to the
 licensee that it is not a competitor of Gaussian, Inc. and that
 it will not use this program in any manner prohibited above.
 ---------------------------------------------------------------
  

 Cite this work as:
 Gaussian 16, Revision B.01,
 M. J. Frisch, G. W. Trucks, H. B. Schlegel, G. E. Scuseria, 
 M. A. Robb, J. R. Cheeseman, G. Scalmani, V. Barone, 
 G. A. Petersson, H. Nakatsuji, X. Li, M. Caricato, A. V. Marenich, 
 J. Bloino, B. G. Janesko, R. Gomperts, B. Mennucci, H. P. Hratchian, 
 J. V. Ortiz, A. F. Izmaylov, J. L. Sonnenberg, D. Williams-Young, 
 F. Ding, F. Lipparini, F. Egidi, J. Goings, B. Peng, A. Petrone, 
 T. Henderson, D. Ranasinghe, V. G. Zakrzewski, J. Gao, N. Rega, 
 G. Zheng, W. Liang, M. Hada, M. Ehara, K. Toyota, R. Fukuda, 
 J. Hasegawa, M. Ishida, T. Nakajima, Y. Honda, O. Kitao, H. Nakai, 
 T. Vreven, K. Throssell, J. A. Montgomery, Jr., J. E. Peralta, 
 F. Ogliaro, M. J. Bearpark, J. J. Heyd, E. N. Brothers, K. N. Kudin, 
 V. N. Staroverov, T. A. Keith, R. Kobayashi, J. Normand, 
 K. Raghavachari, A. P. Rendell, J. C. Burant, S. S. Iyengar, 
 J. Tomasi, M. Cossi, J. M. Millam, M. Klene, C. Adamo, R. Cammi, 
 J. W. Ochterski, R. L. Martin, K. Morokuma, O. Farkas, 
 J. B. Foresman, and D. J. Fox, Gaussian, Inc., Wallingford CT, 2016.
 
 ******************************************
 Gaussian 16:  EM64L-G16RevB.01 20-Dec-2017
                 8-May-2025 
 ******************************************
 %mem=30GB
 %nprocshared=10
 Will use up to   10 processors via shared memory.
 ---------------------
 # CCSD/aug-cc-pVTZ SP
 ---------------------
 1/38=1,172=1/1;
 2/12=2,17=6,18=5,40=1/2;
 3/5=16,6=1,7=10,11=9,25=1,30=1/1,2,3;
 4//1;
 5/5=2,38=5/2;
 8/6=4,9=120000,10=1/1,4;
 9/5=7/13;
 6/7=2,8=2,9=2,10=2/1;
 99/5=1,9=1/99;
 --------------------------------------------------
 Single-point energy of X- + Y- at fixed distance R
 --------------------------------------------------
 Symbolic Z-matrix:
 Charge = -2 Multiplicity = 1
 F                     0.        0.        4.5 
 F                    -1.139     0.        0. 
 H                     0.        0.        0. 
 F                     1.139     0.        0. 
 
                          Input orientation:                          
 ---------------------------------------------------------------------
 Center     Atomic      Atomic             Coordinates (Angstroms)
 Number     Number       Type             X           Y           Z
 ---------------------------------------------------------------------
      1          9           0        0.000000    0.000000    4.500000
      2          9           0       -1.139000    0.000000    0.000000
      3          1           0        0.000000    0.000000    0.000000
      4          9           0        1.139000    0.000000    0.000000
 ---------------------------------------------------------------------
                    Distance matrix (angstroms):
                    1          2          3          4
     1  F    0.000000
     2  F    4.641909   0.000000
     3  H    4.500000   1.139000   0.000000
     4  F    4.641909   2.278000   1.139000   0.000000
 Stoichiometry    F3H(2-)
 Framework group  C2V[C2(HF),SGV(F2)]
 Deg. of freedom     3
 Full point group                 C2V     NOp   4
 Largest Abelian subgroup         C2V     NOp   4
 Largest concise Abelian subgroup C2      NOp   2
                         Standard orientation:                         
 ---------------------------------------------------------------------
 Center     Atomic      Atomic             Coordinates (Angstroms)
 Number     Number       Type             X           Y           Z
 ---------------------------------------------------------------------
      1          9           0        0.000000    0.000000    3.053571
      2          9           0        0.000000    1.139000   -1.446429
      3          1           0        0.000000    0.000000   -1.446429
      4          9           0       -0.000000   -1.139000   -1.446429
 ---------------------------------------------------------------------
 Rotational constants (GHZ):          10.2523318           1.9534829           1.6408372
 Standard basis: Aug-CC-pVTZ (5D, 7F)
 There are    74 symmetry adapted cartesian basis functions of A1  symmetry.
 There are    25 symmetry adapted cartesian basis functions of A2  symmetry.
 There are    36 symmetry adapted cartesian basis functions of B1  symmetry.
 There are    55 symmetry adapted cartesian basis functions of B2  symmetry.
 There are    60 symmetry adapted basis functions of A1  symmetry.
 There are    23 symmetry adapted basis functions of A2  symmetry.
 There are    32 symmetry adapted basis functions of B1  symmetry.
 There are    46 symmetry adapted basis functions of B2  symmetry.
   161 basis functions,   243 primitive gaussians,   190 cartesian basis functions
    15 alpha electrons       15 beta electrons
       nuclear repulsion energy        46.7053267161 Hartrees.
 NAtoms=    4 NActive=    4 NUniq=    3 SFac= 1.78D+00 NAtFMM=   60 NAOKFM=F Big=F
 Integral buffers will be    131072 words long.
 Raffenetti 1 integral format.
 Two-electron integral symmetry is turned on.
 One-electron integrals computed using PRISM.
 NBasis=   161 RedAO= T EigKep=  2.93D-04  NBF=    60    23    32    46
 NBsUse=   161 1.00D-06 EigRej= -1.00D+00 NBFU=    60    23    32    46
 ExpMin= 2.53D-02 ExpMax= 1.95D+04 ExpMxC= 6.65D+02 IAcc=3 IRadAn=         5 AccDes= 0.00D+00
 Harris functional with IExCor=  205 and IRadAn=       5 diagonalized for initial guess.
 HarFok:  IExCor=  205 AccDes= 0.00D+00 IRadAn=         5 IDoV= 1 UseB2=F ITyADJ=14
 ICtDFT=  3500011 ScaDFX=  1.000000  1.000000  1.000000  1.000000
 FoFCou: FMM=F IPFlag=           0 FMFlag=      100000 FMFlg1=           0
         NFxFlg=           0 DoJE=T BraDBF=F KetDBF=T FulRan=T
         wScrn=  0.000000 ICntrl=       500 IOpCl=  0 I1Cent=   200000004 NGrid=           0
         NMat0=    1 NMatS0=      1 NMatT0=    0 NMatD0=    1 NMtDS0=    0 NMtDT0=    0
 Petite list used in FoFCou.
 Initial guess orbital symmetries:
       Occupied  (A1) (B2) (A1) (A1) (B2) (A1) (A1) (A1) (B1) (B2)
                 (B2) (A2) (A1) (B1) (B2)
       Virtual   (A1) (A1) (B2) (B1) (A1) (A1) (B2) (B1) (A1) (A2)
                 (B2) (A1) (B2) (A1) (B1) (A1) (A1) (B2) (B1) (A1)
                 (A1) (B2) (A1) (B1) (A2) (A2) (B2) (B1) (A1) (A2)
                 (B2) (A1) (B1) (A1) (B1) (B2) (A2) (B2) (A1) (B2)
                 (A1) (B1) (A1) (B2) (A1) (A1) (B1) (A1) (B2) (A2)
                 (B2) (B2) (A1) (B1) (A1) (B2) (A2) (A2) (B2) (A1)
                 (A2) (B1) (B2) (A1) (B1) (A1) (B1) (A1) (A2) (B2)
                 (B1) (A2) (B2) (B1) (A1) (B2) (A1) (A2) (B2) (A1)
                 (B1) (A1) (B2) (A2) (B2) (A1) (B2) (B1) (A1) (B1)
                 (A1) (A1) (B1) (A1) (A1) (B1) (B2) (A1) (B1) (A1)
                 (B2) (A2) (B2) (A2) (B2) (B2) (A1) (B1) (A1) (A2)
                 (B2) (B1) (B2) (A2) (A1) (B1) (B2) (A1) (A2) (B2)
                 (B1) (A1) (B2) (A2) (A1) (B2) (B1) (A2) (B2) (A2)
                 (A1) (B2) (B1) (A1) (B1) (A1) (B1) (A1) (A1) (A2)
                 (B2) (A1) (B2) (A1) (B2) (A1)
 The electronic state of the initial guess is 1-A1.
 Keep R1 ints in memory in symmetry-blocked form, NReq=106592091.
 Requested convergence on RMS density matrix=1.00D-08 within 128 cycles.
 Requested convergence on MAX density matrix=1.00D-06.
 Requested convergence on             energy=1.00D-06.
 No special actions if energy rises.
 SCF Done:  E(RHF) =  -298.917525535     A.U. after   10 cycles
            NFock= 10  Conv=0.68D-08     -V/T= 2.0002
 ExpMin= 2.53D-02 ExpMax= 1.95D+04 ExpMxC= 6.65D+02 IAcc=3 IRadAn=         5 AccDes= 0.00D+00
 HarFok:  IExCor=  205 AccDes= 0.00D+00 IRadAn=         5 IDoV=-2 UseB2=F ITyADJ=14
 ICtDFT= 12500011 ScaDFX=  1.000000  1.000000  1.000000  1.000000
 Range of M.O.s used for correlation:     4   161
 NBasis=   161 NAE=    15 NBE=    15 NFC=     3 NFV=     0
 NROrb=    158 NOA=    12 NOB=    12 NVA=   146 NVB=   146

 **** Warning!!: The largest alpha MO coefficient is  0.21194782D+02

 Semi-Direct transformation.
 ModeAB=           4 MOrb=            12 LenV=    4025769180
 LASXX=      5679395 LTotXX=     5679395 LenRXX=    11479218
 LTotAB=     5799823 MaxLAS=    18313464 LenRXY=           0
 NonZer=    17158613 LenScr=    26512384 LnRSAI=    18313464
 LnScr1=    28237824 LExtra=           0 Total=     84542890
 MaxDsk=          -1 SrtSym=           T ITran=            4
 JobTyp=0 Pass  1:  I=   1 to  12.
 (rs|ai) integrals will be sorted in core.
 Spin components of T(2) and E(2):
     alpha-alpha T2 =       0.2531088155D-01 E2=     -0.1155606894D+00
     alpha-beta  T2 =       0.1296487847D+00 E2=     -0.6446281902D+00
     beta-beta   T2 =       0.2531088155D-01 E2=     -0.1155606894D+00
 ANorm=    0.1086402572D+01
 E2 =    -0.8757495691D+00 EUMP2 =    -0.29979327510374D+03
 Keep R2 and R3 ints in memory in symmetry-blocked form, NReq=106598451.
 CIDS: In Core Option IDoMem=           1.
 Iterations=  50 Convergence= 0.100D-06
 Produce multiple copies of IABC intergrals
 Iteration Nr.   1
 **********************
 DD1Dir will call FoFMem   1 times, MxPair=       156
 NAB=    78 NAA=     0 NBB=     0.
 MP4(R+Q)=  0.10088134D-01
 E3=        0.23551010D-01        EUMP3=      -0.29976972409D+03
 E4(DQ)=   -0.58273863D-02        UMP4(DQ)=   -0.29977555148D+03
 E4(SDQ)=  -0.17592292D-01        UMP4(SDQ)=  -0.29978731638D+03
 DE(Corr)= -0.84122056     E(Corr)=     -299.75874609    
 NORM(A)=   0.10804918D+01
 Iteration Nr.   2
 **********************
 DD1Dir will call FoFMem   1 times, MxPair=       156
 NAB=    78 NAA=     0 NBB=     0.
 DE(Corr)= -0.86444079     E(CORR)=     -299.78196632     Delta=-2.32D-02
 NORM(A)=   0.10860986D+01
 Iteration Nr.   3
 **********************
 DD1Dir will call FoFMem   1 times, MxPair=       156
 NAB=    78 NAA=     0 NBB=     0.
 DE(Corr)= -0.86151625     E(CORR)=     -299.77904179     Delta= 2.92D-03
 NORM(A)=   0.10883256D+01
 Iteration Nr.   4
 **********************
 DD1Dir will call FoFMem   1 times, MxPair=       156
 NAB=    78 NAA=     0 NBB=     0.
 DE(Corr)= -0.86342817     E(CORR)=     -299.78095371     Delta=-1.91D-03
 NORM(A)=   0.10891892D+01
 Iteration Nr.   5
 **********************
 DD1Dir will call FoFMem   1 times, MxPair=       156
 NAB=    78 NAA=     0 NBB=     0.
 DE(Corr)= -0.86362463     E(CORR)=     -299.78115017     Delta=-1.96D-04
 NORM(A)=   0.10893867D+01
 Iteration Nr.   6
 **********************
 DD1Dir will call FoFMem   1 times, MxPair=       156
 NAB=    78 NAA=     0 NBB=     0.
 DE(Corr)= -0.86363359     E(CORR)=     -299.78115912     Delta=-8.96D-06
 NORM(A)=   0.10894487D+01
 Iteration Nr.   7
 **********************
 DD1Dir will call FoFMem   1 times, MxPair=       156
 NAB=    78 NAA=     0 NBB=     0.
 DE(Corr)= -0.86363135     E(CORR)=     -299.78115688     Delta= 2.24D-06
 NORM(A)=   0.10894564D+01
 Iteration Nr.   8
 **********************
 DD1Dir will call FoFMem   1 times, MxPair=       156
 NAB=    78 NAA=     0 NBB=     0.
 DE(Corr)= -0.86363627     E(CORR)=     -299.78116181     Delta=-4.92D-06
 NORM(A)=   0.10894602D+01
 Iteration Nr.   9
 **********************
 DD1Dir will call FoFMem   1 times, MxPair=       156
 NAB=    78 NAA=     0 NBB=     0.
 DE(Corr)= -0.86363065     E(CORR)=     -299.78115618     Delta= 5.62D-06
 NORM(A)=   0.10894621D+01
 Iteration Nr.  10
 **********************
 DD1Dir will call FoFMem   1 times, MxPair=       156
 NAB=    78 NAA=     0 NBB=     0.
 DE(Corr)= -0.86363292     E(CORR)=     -299.78115845     Delta=-2.27D-06
 NORM(A)=   0.10894617D+01
 Iteration Nr.  11
 **********************
 DD1Dir will call FoFMem   1 times, MxPair=       156
 NAB=    78 NAA=     0 NBB=     0.
 DE(Corr)= -0.86363205     E(CORR)=     -299.78115759     Delta= 8.63D-07
 NORM(A)=   0.10894612D+01
 Iteration Nr.  12
 **********************
 DD1Dir will call FoFMem   1 times, MxPair=       156
 NAB=    78 NAA=     0 NBB=     0.
 DE(Corr)= -0.86363192     E(CORR)=     -299.78115745     Delta= 1.39D-07
 NORM(A)=   0.10894608D+01
 Iteration Nr.  13
 **********************
 DD1Dir will call FoFMem   1 times, MxPair=       156
 NAB=    78 NAA=     0 NBB=     0.
 DE(Corr)= -0.86363197     E(CORR)=     -299.78115751     Delta=-5.78D-08
 NORM(A)=   0.10894606D+01
 Wavefunction amplitudes converged. E(Corr)=     -299.78115751    
 Largest amplitude= 3.64D-02
 Discarding MO integrals.

 **********************************************************************

            Population analysis using the SCF Density.

 **********************************************************************

 Orbital symmetries:
       Occupied  (B2) (A1) (A1) (A1) (B2) (A1) (A1) (B1) (A1) (A2)
                 (B2) (B2) (B2) (B1) (A1)
       Virtual   (A1) (B2) (A1) (B1) (A1) (B2) (A2) (A1) (B1) (B2)
                 (A1) (B2) (A1) (B1) (A1) (A1) (B2) (A1) (B1) (A1)
                 (A2) (B2) (B1) (A1) (A1) (A2) (B2) (A1) (B1) (A1)
                 (A2) (B2) (B1) (A1) (A2) (B2) (B2) (B1) (A1) (A1)
                 (B1) (B2) (A1) (B2) (A1) (B1) (A1) (A1) (A2) (B2)
                 (B2) (B2) (A1) (B1) (A1) (A2) (B2) (A2) (B2) (B1)
                 (A1) (A2) (B2) (B1) (A1) (A2) (A1) (B1) (B2) (A1)
                 (A2) (B2) (B2) (B1) (A2) (A1) (B1) (B2) (A1) (A1)
                 (B1) (A1) (B2) (A2) (B2) (A1) (B2) (B1) (A1) (B1)
                 (A1) (A1) (B1) (A1) (A1) (B2) (B1) (A1) (B1) (B2)
                 (A1) (A2) (B2) (A2) (B2) (B2) (A1) (B1) (A1) (A2)
                 (B2) (A2) (B2) (B1) (B2) (A2) (A1) (B1) (B2) (A1)
                 (B1) (A1) (B2) (A2) (B2) (A2) (B2) (B1) (A1) (B1)
                 (A1) (A2) (A1) (B1) (B2) (A1) (B1) (A1) (A1) (A2)
                 (B2) (A1) (B2) (A1) (B2) (A1)
 The electronic state is 1-A1.
 Alpha  occ. eigenvalues --  -25.84584 -25.84582 -25.72405  -1.14783  -1.10075
 Alpha  occ. eigenvalues --   -0.96610  -0.35708  -0.21945  -0.21874  -0.19304
 Alpha  occ. eigenvalues --   -0.19260  -0.17243  -0.07103  -0.07101  -0.07087
 Alpha virt. eigenvalues --    0.29304   0.39829   0.45337   0.45817   0.48870
 Alpha virt. eigenvalues --    0.53084   0.53725   0.54702   0.55149   0.57614
 Alpha virt. eigenvalues --    0.59319   0.65962   0.66378   0.73043   0.74598
 Alpha virt. eigenvalues --    0.83383   1.01466   1.03274   1.11548   1.12444
 Alpha virt. eigenvalues --    1.31217   1.31220   1.31724   1.31879   1.33362
 Alpha virt. eigenvalues --    1.33660   1.33714   1.33996   1.34031   1.40116
 Alpha virt. eigenvalues --    1.42092   1.43565   1.53728   1.56517   1.56841
 Alpha virt. eigenvalues --    1.57138   1.57412   1.58505   1.58549   1.59218
 Alpha virt. eigenvalues --    1.63737   1.64465   1.66690   1.68918   1.81072
 Alpha virt. eigenvalues --    2.11346   2.12013   2.20312   2.36377   2.36963
 Alpha virt. eigenvalues --    2.46771   2.95913   3.05094   3.21721   3.22283
 Alpha virt. eigenvalues --    3.23557   3.23773   3.27057   3.27110   3.32669
 Alpha virt. eigenvalues --    3.32695   3.34017   3.34020   3.37445   3.37494
 Alpha virt. eigenvalues --    3.39260   3.39332   3.39417   3.39749   3.40627
 Alpha virt. eigenvalues --    3.42061   3.42094   3.44069   3.44070   3.44192
 Alpha virt. eigenvalues --    3.44195   3.44261   3.44311   3.44411   3.51379
 Alpha virt. eigenvalues --    3.70426   3.70553   3.94648   3.94855   3.95417
 Alpha virt. eigenvalues --    4.01284   4.12801   4.30862   4.31178   4.60602
 Alpha virt. eigenvalues --    4.60684   4.84430   4.90820   4.91157   5.46965
 Alpha virt. eigenvalues --    5.73778   5.76585   5.78180   5.78484   5.78656
 Alpha virt. eigenvalues --    5.80754   5.87200   5.87419   6.46718   6.46916
 Alpha virt. eigenvalues --    7.57716   8.48875   9.25331   9.25345   9.26141
 Alpha virt. eigenvalues --    9.26142   9.28488   9.28490   9.37731   9.37731
 Alpha virt. eigenvalues --    9.37790   9.37791   9.37823   9.37852   9.37873
 Alpha virt. eigenvalues --    9.49032   9.49131   9.64622   9.66188   9.66305
 Alpha virt. eigenvalues --    9.75576   9.75610   9.77110   9.77189   9.80779
 Alpha virt. eigenvalues --    9.80855   9.85467   9.85479   9.85533   9.85760
 Alpha virt. eigenvalues --    9.86133   9.96755   9.96918  10.09832  10.15702
 Alpha virt. eigenvalues --   10.15908  10.50195  10.63651  11.14908  13.61341
 Alpha virt. eigenvalues --   15.51069
          Condensed to atoms (all electrons):
               1          2          3          4
     1  F   10.004225  -0.001659   0.000308  -0.001659
     2  F   -0.001659   9.781715   0.092643  -0.111747
     3  H    0.000308   0.092643   0.291287   0.092643
     4  F   -0.001659  -0.111747   0.092643   9.781715
 Mulliken charges:
               1
     1  F   -1.001214
     2  F   -0.760953
     3  H    0.523119
     4  F   -0.760953
 Sum of Mulliken charges =  -2.00000
 Mulliken charges with hydrogens summed into heavy atoms:
               1
     1  F   -1.001214
     2  F   -0.237833
     4  F   -0.760953
 Electronic spatial extent (au):  <R**2>=            618.5067
 Charge=             -2.0000 electrons
 Dipole moment (field-independent basis, Debye):
    X=              0.0000    Y=              0.0000    Z=             -7.6183  Tot=              7.6183
 Quadrupole moment (field-independent basis, Debye-Ang):
   XX=            -19.7954   YY=            -29.0987   ZZ=            -76.8447
   XY=             -0.0000   XZ=             -0.0000   YZ=              0.0000
 Traceless Quadrupole moment (field-independent basis, Debye-Ang):
   XX=             22.1175   YY=             12.8143   ZZ=            -34.9318
   XY=             -0.0000   XZ=             -0.0000   YZ=              0.0000
 Octapole moment (field-independent basis, Debye-Ang**2):
  XXX=              0.0000  YYY=              0.0000  ZZZ=           -137.3283  XYY=              0.0000
  XXY=              0.0000  XXZ=             -3.7072  XZZ=              0.0000  YZZ=              0.0000
  YYZ=             10.1684  XYZ=              0.0000
 Hexadecapole moment (field-independent basis, Debye-Ang**3):
 XXXX=            -18.4282 YYYY=           -124.0744 ZZZZ=          -1050.8375 XXXY=             -0.0000
 XXXZ=             -0.0000 YYYX=             -0.0000 YYYZ=              0.0000 ZZZX=             -0.0000
 ZZZY=              0.0000 XXYY=            -22.3060 XXZZ=           -100.7190 YYZZ=           -137.4185
 XXYZ=              0.0000 YYXZ=             -0.0000 ZZXY=             -0.0000
 N-N= 4.670532671610D+01 E-N=-8.257187516569D+02  KE= 2.988663701042D+02
 Symmetry A1   KE= 1.805555069862D+02
 Symmetry A2   KE= 6.148160884047D+00
 Symmetry B1   KE= 1.144410020882D+01
 Symmetry B2   KE= 1.007186020252D+02
 1\1\GINC-HELIOS\SP\RCCSD-FC\Aug-CC-pVTZ\F3H1(2-)\POHL\08-May-2025\0\\#
  CCSD/aug-cc-pVTZ SP\\Single-point energy of X- + Y- at fixed distance
  R\\-2,1\F,0,0.,0.,4.5\F,0,-1.139,0.,0.\H,0,0.,0.,0.\F,0,1.139,0.,0.\\
 Version=EM64L-G16RevB.01\State=1-A1\HF=-298.9175255\MP2=-299.7932751\M
 P3=-299.7697241\MP4D=-299.7856396\MP4DQ=-299.7755515\MP4SDQ=-299.78731
 64\CCSD=-299.7811575\RMSD=6.790e-09\PG=C02V [C2(H1F1),SGV(F2)]\\@


 MANHOOD BEGINS BY TRYING TO SHAVE FACE,
 AND ENDS BY TRYING TO SAVE FACE.
 Job cpu time:       0 days  0 hours  4 minutes 58.1 seconds.
 Elapsed time:       0 days  0 hours  0 minutes 29.9 seconds.
 File lengths (MBytes):  RWF=    683 Int=      0 D2E=      0 Chk=      3 Scr=      1
 Normal termination of Gaussian 16 at Thu May  8 14:43:44 2025.
