 Entering Gaussian System, Link 0=g16
 Input=FHF-.com
 Output=FHF-.log
 Initial command:
 /opt/g16/l1.exe "/home/pohl/scratches/g16/Gau-1483014.inp" -scrdir="/home/pohl/scratches/g16/"
 Entering Link 1 = /opt/g16/l1.exe PID=   1483016.
  
 Copyright (c) 1988-2017, Gaussian, Inc.  All Rights Reserved.
  
 This is part of the Gaussian(R) 16 program.  It is based on
 the Gaussian(R) 09 system (copyright 2009, Gaussian, Inc.),
 the Gaussian(R) 03 system (copyright 2003, Gaussian, Inc.),
 the Gaussian(R) 98 system (copyright 1998, Gaussian, Inc.),
 the Gaussian(R) 94 system (copyright 1995, Gaussian, Inc.),
 the Gaussian 92(TM) system (copyright 1992, Gaussian, Inc.),
 the Gaussian 90(TM) system (copyright 1990, Gaussian, Inc.),
 the Gaussian 88(TM) system (copyright 1988, Gaussian, Inc.),
 the Gaussian 86(TM) system (copyright 1986, Carnegie Mellon
 University), and the Gaussian 82(TM) system (copyright 1983,
 Carnegie Mellon University). Gaussian is a federally registered
 trademark of Gaussian, Inc.
  
 This software contains proprietary and confidential information,
 including trade secrets, belonging to Gaussian, Inc.
  
 This software is provided under written license and may be
 used, copied, transmitted, or stored only in accord with that
 written license.
  
 The following legend is applicable only to US Government
 contracts under FAR:
  
                    RESTRICTED RIGHTS LEGEND
  
 Use, reproduction and disclosure by the US Government is
 subject to restrictions as set forth in subparagraphs (a)
 and (c) of the Commercial Computer Software - Restricted
 Rights clause in FAR 52.227-19.
  
 Gaussian, Inc.
 340 Quinnipiac St., Bldg. 40, Wallingford CT 06492
  
  
 ---------------------------------------------------------------
 Warning -- This program may not be used in any manner that
 competes with the business of Gaussian, Inc. or will provide
 assistance to any competitor of Gaussian, Inc.  The licensee
 of this program is prohibited from giving any competitor of
 Gaussian, Inc. access to this program.  By using this program,
 the user acknowledges that Gaussian, Inc. is engaged in the
 business of creating and licensing software in the field of
 computational chemistry and represents and warrants to the
 licensee that it is not a competitor of Gaussian, Inc. and that
 it will not use this program in any manner prohibited above.
 ---------------------------------------------------------------
  

 Cite this work as:
 Gaussian 16, Revision B.01,
 M. J. Frisch, G. W. Trucks, H. B. Schlegel, G. E. Scuseria, 
 M. A. Robb, J. R. Cheeseman, G. Scalmani, V. Barone, 
 G. A. Petersson, H. Nakatsuji, X. Li, M. Caricato, A. V. Marenich, 
 J. Bloino, B. G. Janesko, R. Gomperts, B. Mennucci, H. P. Hratchian, 
 J. V. Ortiz, A. F. Izmaylov, J. L. Sonnenberg, D. Williams-Young, 
 F. Ding, F. Lipparini, F. Egidi, J. Goings, B. Peng, A. Petrone, 
 T. Henderson, D. Ranasinghe, V. G. Zakrzewski, J. Gao, N. Rega, 
 G. Zheng, W. Liang, M. Hada, M. Ehara, K. Toyota, R. Fukuda, 
 J. Hasegawa, M. Ishida, T. Nakajima, Y. Honda, O. Kitao, H. Nakai, 
 T. Vreven, K. Throssell, J. A. Montgomery, Jr., J. E. Peralta, 
 F. Ogliaro, M. J. Bearpark, J. J. Heyd, E. N. Brothers, K. N. Kudin, 
 V. N. Staroverov, T. A. Keith, R. Kobayashi, J. Normand, 
 K. Raghavachari, A. P. Rendell, J. C. Burant, S. S. Iyengar, 
 J. Tomasi, M. Cossi, J. M. Millam, M. Klene, C. Adamo, R. Cammi, 
 J. W. Ochterski, R. L. Martin, K. Morokuma, O. Farkas, 
 J. B. Foresman, and D. J. Fox, Gaussian, Inc., Wallingford CT, 2016.
 
 ******************************************
 Gaussian 16:  EM64L-G16RevB.01 20-Dec-2017
                14-May-2025 
 ******************************************
 %mem=30GB
 %nprocshared=10
 Will use up to   10 processors via shared memory.
 ---------------------
 # CCSD/aug-cc-pVTZ SP
 ---------------------
 1/38=1,172=1/1;
 2/12=2,17=6,18=5,40=1/2;
 3/5=16,6=1,7=10,11=9,25=1,30=1/1,2,3;
 4//1;
 5/5=2,38=5/2;
 8/6=4,9=120000,10=1/1,4;
 9/5=7/13;
 6/7=2,8=2,9=2,10=2/1;
 99/5=1,9=1/99;
 ---------------------------
 Single-point energy of FHF-
 ---------------------------
 Symbolic Z-matrix:
 Charge = -1 Multiplicity = 1
 F                    -1.139     0.        0. 
 H                     0.        0.        0. 
 F                     1.139     0.        0. 
 
                          Input orientation:                          
 ---------------------------------------------------------------------
 Center     Atomic      Atomic             Coordinates (Angstroms)
 Number     Number       Type             X           Y           Z
 ---------------------------------------------------------------------
      1          9           0       -1.139000    0.000000    0.000000
      2          1           0        0.000000    0.000000    0.000000
      3          9           0        1.139000    0.000000    0.000000
 ---------------------------------------------------------------------
                    Distance matrix (angstroms):
                    1          2          3
     1  F    0.000000
     2  H    1.139000   0.000000
     3  F    2.278000   1.139000   0.000000
 Stoichiometry    F2H(1-)
 Framework group  D*H[O(H),C*(F.F)]
 Deg. of freedom     1
 Full point group                 D*H     NOp   8
 Largest Abelian subgroup         D2H     NOp   8
 Largest concise Abelian subgroup C2      NOp   2
                         Standard orientation:                         
 ---------------------------------------------------------------------
 Center     Atomic      Atomic             Coordinates (Angstroms)
 Number     Number       Type             X           Y           Z
 ---------------------------------------------------------------------
      1          9           0        0.000000    0.000000    1.139000
      2          1           0        0.000000    0.000000    0.000000
      3          9           0        0.000000    0.000000   -1.139000
 ---------------------------------------------------------------------
 Rotational constants (GHZ):           0.0000000          10.2523318          10.2523318
 Standard basis: Aug-CC-pVTZ (5D, 7F)
 There are    34 symmetry adapted cartesian basis functions of AG  symmetry.
 There are     7 symmetry adapted cartesian basis functions of B1G symmetry.
 There are    15 symmetry adapted cartesian basis functions of B2G symmetry.
 There are    15 symmetry adapted cartesian basis functions of B3G symmetry.
 There are     5 symmetry adapted cartesian basis functions of AU  symmetry.
 There are    27 symmetry adapted cartesian basis functions of B1U symmetry.
 There are    16 symmetry adapted cartesian basis functions of B2U symmetry.
 There are    16 symmetry adapted cartesian basis functions of B3U symmetry.
 There are    27 symmetry adapted basis functions of AG  symmetry.
 There are     7 symmetry adapted basis functions of B1G symmetry.
 There are    13 symmetry adapted basis functions of B2G symmetry.
 There are    13 symmetry adapted basis functions of B3G symmetry.
 There are     5 symmetry adapted basis functions of AU  symmetry.
 There are    22 symmetry adapted basis functions of B1U symmetry.
 There are    14 symmetry adapted basis functions of B2U symmetry.
 There are    14 symmetry adapted basis functions of B3U symmetry.
   115 basis functions,   171 primitive gaussians,   135 cartesian basis functions
    10 alpha electrons       10 beta electrons
       nuclear repulsion energy        27.1789875670 Hartrees.
 NAtoms=    3 NActive=    3 NUniq=    2 SFac= 2.25D+00 NAtFMM=   60 NAOKFM=F Big=F
 Integral buffers will be    131072 words long.
 Raffenetti 1 integral format.
 Two-electron integral symmetry is turned on.
 One-electron integrals computed using PRISM.
 NBasis=   115 RedAO= T EigKep=  2.93D-04  NBF=    27     7    13    13     5    22    14    14
 NBsUse=   115 1.00D-06 EigRej= -1.00D+00 NBFU=    27     7    13    13     5    22    14    14
 ExpMin= 2.53D-02 ExpMax= 1.95D+04 ExpMxC= 6.65D+02 IAcc=3 IRadAn=         5 AccDes= 0.00D+00
 Harris functional with IExCor=  205 and IRadAn=       5 diagonalized for initial guess.
 HarFok:  IExCor=  205 AccDes= 0.00D+00 IRadAn=         5 IDoV= 1 UseB2=F ITyADJ=14
 ICtDFT=  3500011 ScaDFX=  1.000000  1.000000  1.000000  1.000000
 FoFCou: FMM=F IPFlag=           0 FMFlag=      100000 FMFlg1=           0
         NFxFlg=           0 DoJE=T BraDBF=F KetDBF=T FulRan=T
         wScrn=  0.000000 ICntrl=       500 IOpCl=  0 I1Cent=   200000004 NGrid=           0
         NMat0=    1 NMatS0=      1 NMatT0=    0 NMatD0=    1 NMtDS0=    0 NMtDT0=    0
 Petite list used in FoFCou.
 Initial guess orbital symmetries:
       Occupied  (SGG) (SGU) (SGG) (SGU) (SGG) (PIU) (PIU) (SGU)
                 (PIG) (PIG)
       Virtual   (SGG) (SGU) (PIU) (PIU) (SGG) (SGG) (PIG) (PIG)
                 (SGU) (PIU) (PIU) (SGG) (SGG) (SGU) (DLTG) (DLTG)
                 (DLTU) (DLTU) (PIU) (PIU) (PIG) (PIG) (SGG) (PIU)
                 (PIU) (PIG) (PIG) (SGU) (SGG) (DLTG) (DLTG) (SGU)
                 (SGG) (PIU) (PIU) (SGU) (PIG) (PIG) (SGU) (SGG)
                 (DLTG) (DLTG) (PIG) (PIG) (DLTU) (DLTU) (PIU)
                 (PIU) (PHIU) (PHIU) (PHIG) (PHIG) (DLTU) (DLTU)
                 (SGG) (DLTG) (DLTG) (SGU) (PIG) (PIG) (SGG) (SGU)
                 (PIU) (PIU) (DLTG) (DLTG) (SGG) (PIU) (PIU) (SGG)
                 (PIU) (PIU) (SGU) (PIG) (PIG) (PIG) (PIG) (SGU)
                 (SGG) (PHIU) (PHIU) (PHIG) (PHIG) (DLTU) (DLTU)
                 (DLTG) (DLTG) (SGU) (PIG) (PIG) (DLTU) (DLTU)
                 (DLTG) (DLTG) (PIU) (PIU) (PIU) (PIU) (SGG) (PIG)
                 (PIG) (SGG) (SGU) (SGU) (SGG)
 The electronic state of the initial guess is 1-SGG.
 Keep R1 ints in memory in symmetry-blocked form, NReq=26204208.
 Requested convergence on RMS density matrix=1.00D-08 within 128 cycles.
 Requested convergence on MAX density matrix=1.00D-06.
 Requested convergence on             energy=1.00D-06.
 No special actions if energy rises.
 SCF Done:  E(RHF) =  -199.577463522     A.U. after   10 cycles
            NFock= 10  Conv=0.88D-09     -V/T= 2.0007
 ExpMin= 2.53D-02 ExpMax= 1.95D+04 ExpMxC= 6.65D+02 IAcc=3 IRadAn=         5 AccDes= 0.00D+00
 HarFok:  IExCor=  205 AccDes= 0.00D+00 IRadAn=         5 IDoV=-2 UseB2=F ITyADJ=14
 ICtDFT= 12500011 ScaDFX=  1.000000  1.000000  1.000000  1.000000
 Range of M.O.s used for correlation:     3   115
 NBasis=   115 NAE=    10 NBE=    10 NFC=     2 NFV=     0
 NROrb=    113 NOA=     8 NOB=     8 NVA=   105 NVB=   105

 **** Warning!!: The largest alpha MO coefficient is  0.21680634D+02

 Semi-Direct transformation.
 ModeAB=           4 MOrb=             8 LenV=    4026038981
 LASXX=       701378 LTotXX=      701378 LenRXX=     1425440
 LTotAB=      724062 MaxLAS=     4613112 LenRXY=           0
 NonZer=     2126818 LenScr=     3929600 LnRSAI=     4613112
 LnScr1=     7685120 LExtra=           0 Total=     17653272
 MaxDsk=          -1 SrtSym=           T ITran=            4
 JobTyp=0 Pass  1:  I=   1 to   8.
 (rs|ai) integrals will be sorted in core.
 Spin components of T(2) and E(2):
     alpha-alpha T2 =       0.1602388542D-01 E2=     -0.7635372287D-01
     alpha-beta  T2 =       0.8260711606D-01 E2=     -0.4275907272D+00
     beta-beta   T2 =       0.1602388542D-01 E2=     -0.7635372287D-01
 ANorm=    0.1055772176D+01
 E2 =    -0.5802981729D+00 EUMP2 =    -0.20015776169496D+03
 Keep R2 and R3 ints in memory in symmetry-blocked form, NReq=26208744.
 CIDS: In Core Option IDoMem=           1.
 Iterations=  50 Convergence= 0.100D-06
 Produce multiple copies of IABC intergrals
 Iteration Nr.   1
 **********************
 DD1Dir will call FoFMem   1 times, MxPair=        72
 NAB=    36 NAA=     0 NBB=     0.
 MP4(R+Q)=  0.69993782D-02
 E3=        0.11546367D-01        EUMP3=      -0.20014621533D+03
 E4(DQ)=   -0.24525050D-02        UMP4(DQ)=   -0.20014866783D+03
 E4(SDQ)=  -0.89280035D-02        UMP4(SDQ)=  -0.20015514333D+03
 DE(Corr)= -0.56138757     E(Corr)=     -200.13885110    
 NORM(A)=   0.10522608D+01
 Iteration Nr.   2
 **********************
 DD1Dir will call FoFMem   1 times, MxPair=        72
 NAB=    36 NAA=     0 NBB=     0.
 DE(Corr)= -0.57478794     E(CORR)=     -200.15225146     Delta=-1.34D-02
 NORM(A)=   0.10558626D+01
 Iteration Nr.   3
 **********************
 DD1Dir will call FoFMem   1 times, MxPair=        72
 NAB=    36 NAA=     0 NBB=     0.
 DE(Corr)= -0.57376567     E(CORR)=     -200.15122919     Delta= 1.02D-03
 NORM(A)=   0.10569504D+01
 Iteration Nr.   4
 **********************
 DD1Dir will call FoFMem   1 times, MxPair=        72
 NAB=    36 NAA=     0 NBB=     0.
 DE(Corr)= -0.57473239     E(CORR)=     -200.15219591     Delta=-9.67D-04
 NORM(A)=   0.10573167D+01
 Iteration Nr.   5
 **********************
 DD1Dir will call FoFMem   1 times, MxPair=        72
 NAB=    36 NAA=     0 NBB=     0.
 DE(Corr)= -0.57482545     E(CORR)=     -200.15228898     Delta=-9.31D-05
 NORM(A)=   0.10573960D+01
 Iteration Nr.   6
 **********************
 DD1Dir will call FoFMem   1 times, MxPair=        72
 NAB=    36 NAA=     0 NBB=     0.
 DE(Corr)= -0.57482882     E(CORR)=     -200.15229234     Delta=-3.37D-06
 NORM(A)=   0.10574148D+01
 Iteration Nr.   7
 **********************
 DD1Dir will call FoFMem   1 times, MxPair=        72
 NAB=    36 NAA=     0 NBB=     0.
 DE(Corr)= -0.57482851     E(CORR)=     -200.15229203     Delta= 3.07D-07
 NORM(A)=   0.10574165D+01
 Iteration Nr.   8
 **********************
 DD1Dir will call FoFMem   1 times, MxPair=        72
 NAB=    36 NAA=     0 NBB=     0.
 DE(Corr)= -0.57482917     E(CORR)=     -200.15229269     Delta=-6.58D-07
 NORM(A)=   0.10574179D+01
 Iteration Nr.   9
 **********************
 DD1Dir will call FoFMem   1 times, MxPair=        72
 NAB=    36 NAA=     0 NBB=     0.
 DE(Corr)= -0.57482831     E(CORR)=     -200.15229183     Delta= 8.60D-07
 NORM(A)=   0.10574182D+01
 Iteration Nr.  10
 **********************
 DD1Dir will call FoFMem   1 times, MxPair=        72
 NAB=    36 NAA=     0 NBB=     0.
 DE(Corr)= -0.57482867     E(CORR)=     -200.15229219     Delta=-3.58D-07
 NORM(A)=   0.10574182D+01
 Iteration Nr.  11
 **********************
 DD1Dir will call FoFMem   1 times, MxPair=        72
 NAB=    36 NAA=     0 NBB=     0.
 DE(Corr)= -0.57482854     E(CORR)=     -200.15229206     Delta= 1.26D-07
 NORM(A)=   0.10574182D+01
 Iteration Nr.  12
 **********************
 DD1Dir will call FoFMem   1 times, MxPair=        72
 NAB=    36 NAA=     0 NBB=     0.
 DE(Corr)= -0.57482857     E(CORR)=     -200.15229209     Delta=-2.94D-08
 NORM(A)=   0.10574182D+01
 Wavefunction amplitudes converged. E(Corr)=     -200.15229209    
 Largest amplitude= 3.27D-02
 Discarding MO integrals.

 **********************************************************************

            Population analysis using the SCF Density.

 **********************************************************************

 Orbital symmetries:
       Occupied  (SGU) (SGG) (SGG) (SGU) (SGG) (PIU) (PIU) (PIG)
                 (PIG) (SGU)
       Virtual   (SGG) (SGU) (PIU) (PIU) (SGG) (PIG) (PIG) (SGG)
                 (SGU) (PIU) (PIU) (SGG) (SGU) (SGG) (DLTG) (DLTG)
                 (DLTU) (DLTU) (PIU) (PIU) (SGG) (PIG) (PIG) (PIU)
                 (PIU) (PIG) (PIG) (SGU) (DLTG) (DLTG) (SGG) (SGU)
                 (SGG) (PIU) (PIU) (PIG) (PIG) (SGU) (SGU) (SGG)
                 (DLTG) (DLTG) (PIG) (PIG) (DLTU) (DLTU) (PHIU)
                 (PHIU) (PHIG) (PHIG) (PIU) (PIU) (DLTU) (DLTU)
                 (SGG) (DLTG) (DLTG) (SGU) (PIG) (PIG) (SGG) (SGU)
                 (PIU) (PIU) (DLTG) (DLTG) (SGG) (PIU) (PIU) (SGG)
                 (SGU) (PIU) (PIU) (PIG) (PIG) (PIG) (PIG) (SGU)
                 (SGG) (PHIU) (PHIU) (PHIG) (PHIG) (DLTU) (DLTU)
                 (DLTG) (DLTG) (SGU) (PIG) (PIG) (DLTU) (DLTU)
                 (PIU) (PIU) (DLTG) (DLTG) (PIU) (PIU) (SGG) (PIG)
                 (PIG) (SGG) (SGU) (SGU) (SGG)
 The electronic state is 1-SGG.
 Alpha  occ. eigenvalues --  -25.95738 -25.95736  -1.25977  -1.21247  -0.46890
 Alpha  occ. eigenvalues --   -0.33107  -0.33107  -0.30455  -0.30455  -0.28365
 Alpha virt. eigenvalues --    0.19551   0.30572   0.35571   0.35571   0.35887
 Alpha virt. eigenvalues --    0.43413   0.43413   0.47755   0.54649   0.62120
 Alpha virt. eigenvalues --    0.62120   0.72007   0.90459   0.91922   0.99933
 Alpha virt. eigenvalues --    0.99933   1.19970   1.19970   1.20907   1.20907
 Alpha virt. eigenvalues --    1.27385   1.31393   1.31393   1.42643   1.42643
 Alpha virt. eigenvalues --    1.45652   1.45652   1.45959   1.47162   1.47162
 Alpha virt. eigenvalues --    1.47810   1.57613   1.69271   2.00272   2.00272
 Alpha virt. eigenvalues --    2.25421   2.25421   2.35402   2.84759   2.93698
 Alpha virt. eigenvalues --    3.10416   3.10416   3.12427   3.12427   3.15820
 Alpha virt. eigenvalues --    3.15820   3.21408   3.21408   3.22759   3.22759
 Alpha virt. eigenvalues --    3.26390   3.26390   3.30896   3.30896   3.40047
 Alpha virt. eigenvalues --    3.59206   3.59206   3.83696   3.83869   3.83869
 Alpha virt. eigenvalues --    3.90074   4.01500   4.19772   4.19772   4.49290
 Alpha virt. eigenvalues --    4.49290   4.72761   4.79630   4.79630   5.35751
 Alpha virt. eigenvalues --    5.62562   5.65572   5.65572   5.76104   5.76104
 Alpha virt. eigenvalues --    6.35545   6.35545   7.46512   8.37653   9.14131
 Alpha virt. eigenvalues --    9.14131   9.14943   9.14943   9.17317   9.17317
 Alpha virt. eigenvalues --    9.37836   9.37836   9.53334   9.55057   9.55057
 Alpha virt. eigenvalues --    9.64401   9.64401   9.66038   9.66038   9.69614
 Alpha virt. eigenvalues --    9.69614   9.85590   9.85590   9.98549  10.04594
 Alpha virt. eigenvalues --   10.04594  10.39013  10.52519  13.50193  15.38964
          Condensed to atoms (all electrons):
               1          2          3
     1  F    9.764039   0.092186  -0.101261
     2  H    0.092186   0.305702   0.092186
     3  F   -0.101261   0.092186   9.764039
 Mulliken charges:
               1
     1  F   -0.754964
     2  H    0.509927
     3  F   -0.754964
 Sum of Mulliken charges =  -1.00000
 Mulliken charges with hydrogens summed into heavy atoms:
               1
     1  F   -0.245036
     3  F   -0.754964
 Electronic spatial extent (au):  <R**2>=            118.2049
 Charge=             -1.0000 electrons
 Dipole moment (field-independent basis, Debye):
    X=             -0.0000    Y=             -0.0000    Z=              0.0000  Tot=              0.0000
 Quadrupole moment (field-independent basis, Debye-Ang):
   XX=            -12.5680   YY=            -12.5680   ZZ=            -21.6904
   XY=              0.0000   XZ=              0.0000   YZ=              0.0000
 Traceless Quadrupole moment (field-independent basis, Debye-Ang):
   XX=              3.0408   YY=              3.0408   ZZ=             -6.0816
   XY=              0.0000   XZ=              0.0000   YZ=              0.0000
 Octapole moment (field-independent basis, Debye-Ang**2):
  XXX=             -0.0000  YYY=             -0.0000  ZZZ=             -0.0000  XYY=             -0.0000
  XXY=              0.0000  XXZ=              0.0000  XZZ=             -0.0000  YZZ=             -0.0000
  YYZ=              0.0000  XYZ=              0.0000
 Hexadecapole moment (field-independent basis, Debye-Ang**3):
 XXXX=            -10.3834 YYYY=            -10.3834 ZZZZ=           -114.7447 XXXY=             -0.0000
 XXXZ=              0.0000 YYYX=             -0.0000 YYYZ=              0.0000 ZZZX=              0.0000
 ZZZY=              0.0000 XXYY=             -3.4611 XXZZ=            -19.4845 YYZZ=            -19.4845
 XXYZ=              0.0000 YYXZ=              0.0000 ZZXY=             -0.0000
 N-N= 2.717898756701D+01 E-N=-5.401386576786D+02  KE= 1.994472867041D+02
 Symmetry AG   KE= 8.677982533036D+01
 Symmetry B1G  KE= 6.204487016587D-33
 Symmetry B2G  KE= 6.156935197999D+00
 Symmetry B3G  KE= 6.156935197999D+00
 Symmetry AU   KE= 9.887637967706D-35
 Symmetry B1U  KE= 8.885886431590D+01
 Symmetry B2U  KE= 5.747363330942D+00
 Symmetry B3U  KE= 5.747363330942D+00
 1\1\GINC-HELIOS\SP\RCCSD-FC\Aug-CC-pVTZ\F2H1(1-)\POHL\14-May-2025\0\\#
  CCSD/aug-cc-pVTZ SP\\Single-point energy of FHF-\\-1,1\F,0,-1.139,0.,
 0.\H,0,0.,0.,0.\F,0,1.139,0.,0.\\Version=EM64L-G16RevB.01\State=1-SGG\
 HF=-199.5774635\MP2=-200.1577617\MP3=-200.1462153\MP4D=-200.1556672\MP
 4DQ=-200.1486678\MP4SDQ=-200.1551433\CCSD=-200.1522921\RMSD=8.794e-10\
 PG=D*H [O(H1),C*(F1.F1)]\\@


 WE LEARN WISDOM FROM FAILURE MUCH MORE THAN FROM SUCCESS.
 WE DISCOVER WHAT WILL DO BY FINDING OUT WHAT WILL NOT DO...
 AND HE WHO NEVER MADE A MISTAKE NEVER MADE A DISCOVERY
 Job cpu time:       0 days  0 hours  0 minutes 59.2 seconds.
 Elapsed time:       0 days  0 hours  0 minutes  6.0 seconds.
 File lengths (MBytes):  RWF=    149 Int=      0 D2E=      0 Chk=      2 Scr=      1
 Normal termination of Gaussian 16 at Wed May 14 18:40:29 2025.
