 Entering Gaussian System, Link 0=g16
 Input=new_req.com
 Output=new_req.log
 Initial command:
 /opt/g16/l1.exe "/home/pohl/scratches/g16/Gau-2211714.inp" -scrdir="/home/pohl/scratches/g16/"
 Entering Link 1 = /opt/g16/l1.exe PID=   2211716.
  
 Copyright (c) 1988-2017, Gaussian, Inc.  All Rights Reserved.
  
 This is part of the Gaussian(R) 16 program.  It is based on
 the Gaussian(R) 09 system (copyright 2009, Gaussian, Inc.),
 the Gaussian(R) 03 system (copyright 2003, Gaussian, Inc.),
 the Gaussian(R) 98 system (copyright 1998, Gaussian, Inc.),
 the Gaussian(R) 94 system (copyright 1995, Gaussian, Inc.),
 the Gaussian 92(TM) system (copyright 1992, Gaussian, Inc.),
 the Gaussian 90(TM) system (copyright 1990, Gaussian, Inc.),
 the Gaussian 88(TM) system (copyright 1988, Gaussian, Inc.),
 the Gaussian 86(TM) system (copyright 1986, Carnegie Mellon
 University), and the Gaussian 82(TM) system (copyright 1983,
 Carnegie Mellon University). Gaussian is a federally registered
 trademark of Gaussian, Inc.
  
 This software contains proprietary and confidential information,
 including trade secrets, belonging to Gaussian, Inc.
  
 This software is provided under written license and may be
 used, copied, transmitted, or stored only in accord with that
 written license.
  
 The following legend is applicable only to US Government
 contracts under FAR:
  
                    RESTRICTED RIGHTS LEGEND
  
 Use, reproduction and disclosure by the US Government is
 subject to restrictions as set forth in subparagraphs (a)
 and (c) of the Commercial Computer Software - Restricted
 Rights clause in FAR 52.227-19.
  
 Gaussian, Inc.
 340 Quinnipiac St., Bldg. 40, Wallingford CT 06492
  
  
 ---------------------------------------------------------------
 Warning -- This program may not be used in any manner that
 competes with the business of Gaussian, Inc. or will provide
 assistance to any competitor of Gaussian, Inc.  The licensee
 of this program is prohibited from giving any competitor of
 Gaussian, Inc. access to this program.  By using this program,
 the user acknowledges that Gaussian, Inc. is engaged in the
 business of creating and licensing software in the field of
 computational chemistry and represents and warrants to the
 licensee that it is not a competitor of Gaussian, Inc. and that
 it will not use this program in any manner prohibited above.
 ---------------------------------------------------------------
  

 Cite this work as:
 Gaussian 16, Revision B.01,
 M. J. Frisch, G. W. Trucks, H. B. Schlegel, G. E. Scuseria, 
 M. A. Robb, J. R. Cheeseman, G. Scalmani, V. Barone, 
 G. A. Petersson, H. Nakatsuji, X. Li, M. Caricato, A. V. Marenich, 
 J. Bloino, B. G. Janesko, R. Gomperts, B. Mennucci, H. P. Hratchian, 
 J. V. Ortiz, A. F. Izmaylov, J. L. Sonnenberg, D. Williams-Young, 
 F. Ding, F. Lipparini, F. Egidi, J. Goings, B. Peng, A. Petrone, 
 T. Henderson, D. Ranasinghe, V. G. Zakrzewski, J. Gao, N. Rega, 
 G. Zheng, W. Liang, M. Hada, M. Ehara, K. Toyota, R. Fukuda, 
 J. Hasegawa, M. Ishida, T. Nakajima, Y. Honda, O. Kitao, H. Nakai, 
 T. Vreven, K. Throssell, J. A. Montgomery, Jr., J. E. Peralta, 
 F. Ogliaro, M. J. Bearpark, J. J. Heyd, E. N. Brothers, K. N. Kudin, 
 V. N. Staroverov, T. A. Keith, R. Kobayashi, J. Normand, 
 K. Raghavachari, A. P. Rendell, J. C. Burant, S. S. Iyengar, 
 J. Tomasi, M. Cossi, J. M. Millam, M. Klene, C. Adamo, R. Cammi, 
 J. W. Ochterski, R. L. Martin, K. Morokuma, O. Farkas, 
 J. B. Foresman, and D. J. Fox, Gaussian, Inc., Wallingford CT, 2016.
 
 ******************************************
 Gaussian 16:  EM64L-G16RevB.01 20-Dec-2017
                 4-Jun-2025 
 ******************************************
 %mem=30GB
 %nprocshared=10
 Will use up to   10 processors via shared memory.
 ---------------------------------
 # CCSD(T,Full)/aug-cc-pVTZ 6D 10F
 ---------------------------------
 1/38=1,172=1/1;
 2/12=2,17=6,18=5,40=1/2;
 3/5=16,6=1,7=10,8=22,11=9,25=1,30=1/1,2,3;
 4//1;
 5/5=2,38=5/2;
 8/6=4,9=120000,10=90/1,4;
 9/5=7,14=2/13;
 6/7=2,8=2,9=2,10=2/1;
 99/5=1,9=1/99;
 --------------------------------------------------
 Single-point energy of X- + Y- at fixed distance R
 --------------------------------------------------
 Symbolic Z-matrix:
 Charge = -2 Multiplicity = 1
 F                     0.        0.        3.2 
 F                    -1.139     0.        0. 
 H                     0.        0.        0. 
 F                     1.139     0.        0. 
 
                          Input orientation:                          
 ---------------------------------------------------------------------
 Center     Atomic      Atomic             Coordinates (Angstroms)
 Number     Number       Type             X           Y           Z
 ---------------------------------------------------------------------
      1          9           0        0.000000    0.000000    3.200000
      2          9           0       -1.139000    0.000000    0.000000
      3          1           0        0.000000    0.000000    0.000000
      4          9           0        1.139000    0.000000    0.000000
 ---------------------------------------------------------------------
                    Distance matrix (angstroms):
                    1          2          3          4
     1  F    0.000000
     2  F    3.396663   0.000000
     3  H    3.200000   1.139000   0.000000
     4  F    3.396663   2.278000   1.139000   0.000000
 Stoichiometry    F3H(2-)
 Framework group  C2V[C2(HF),SGV(F2)]
 Deg. of freedom     3
 Full point group                 C2V     NOp   4
 Largest Abelian subgroup         C2V     NOp   4
 Largest concise Abelian subgroup C2      NOp   2
                         Standard orientation:                         
 ---------------------------------------------------------------------
 Center     Atomic      Atomic             Coordinates (Angstroms)
 Number     Number       Type             X           Y           Z
 ---------------------------------------------------------------------
      1          9           0       -0.000000    0.000000    2.171429
      2          9           0        0.000000    1.139000   -1.028571
      3          1           0        0.000000    0.000000   -1.028571
      4          9           0       -0.000000   -1.139000   -1.028571
 ---------------------------------------------------------------------
 Rotational constants (GHZ):          10.2523318           3.8630887           2.8058439
 Standard basis: Aug-CC-pVTZ (6D, 10F)
 There are    74 symmetry adapted cartesian basis functions of A1  symmetry.
 There are    25 symmetry adapted cartesian basis functions of A2  symmetry.
 There are    36 symmetry adapted cartesian basis functions of B1  symmetry.
 There are    55 symmetry adapted cartesian basis functions of B2  symmetry.
 There are    74 symmetry adapted basis functions of A1  symmetry.
 There are    25 symmetry adapted basis functions of A2  symmetry.
 There are    36 symmetry adapted basis functions of B1  symmetry.
 There are    55 symmetry adapted basis functions of B2  symmetry.
   190 basis functions,   243 primitive gaussians,   190 cartesian basis functions
    15 alpha electrons       15 beta electrons
       nuclear repulsion energy        53.9058054216 Hartrees.
 NAtoms=    4 NActive=    4 NUniq=    3 SFac= 1.78D+00 NAtFMM=   60 NAOKFM=F Big=F
 Integral buffers will be    131072 words long.
 Raffenetti 1 integral format.
 Two-electron integral symmetry is turned on.
 One-electron integrals computed using PRISM.
 NBasis=   190 RedAO= T EigKep=  4.50D-06  NBF=    74    25    36    55
 NBsUse=   190 1.00D-06 EigRej= -1.00D+00 NBFU=    74    25    36    55
 ExpMin= 2.53D-02 ExpMax= 1.95D+04 ExpMxC= 6.65D+02 IAcc=3 IRadAn=         5 AccDes= 0.00D+00
 Harris functional with IExCor=  205 and IRadAn=       5 diagonalized for initial guess.
 HarFok:  IExCor=  205 AccDes= 0.00D+00 IRadAn=         5 IDoV= 1 UseB2=F ITyADJ=14
 ICtDFT=  3500011 ScaDFX=  1.000000  1.000000  1.000000  1.000000
 FoFCou: FMM=F IPFlag=           0 FMFlag=      100000 FMFlg1=           0
         NFxFlg=           0 DoJE=T BraDBF=F KetDBF=T FulRan=T
         wScrn=  0.000000 ICntrl=       500 IOpCl=  0 I1Cent=   200000004 NGrid=           0
         NMat0=    1 NMatS0=      1 NMatT0=    0 NMatD0=    1 NMtDS0=    0 NMtDT0=    0
 Petite list used in FoFCou.
 Initial guess orbital symmetries:
       Occupied  (A1) (B2) (A1) (A1) (B2) (A1) (A1) (A1) (B1) (B2)
                 (B2) (A2) (B1) (B2) (A1)
       Virtual   (A1) (A1) (B2) (B1) (A1) (A1) (B2) (B1) (A1) (A2)
                 (B2) (A1) (B2) (A1) (B1) (A1) (A1) (B2) (A1) (B1)
                 (B2) (A1) (A2) (A1) (B1) (B1) (A2) (A1) (B2) (A1)
                 (A1) (B1) (B2) (A2) (B2) (B1) (A1) (B2) (A1) (A2)
                 (A1) (B2) (B1) (A1) (A1) (B2) (B2) (B1) (A1) (B2)
                 (A2) (A1) (A1) (B2) (B2) (A1) (A2) (B1) (B1) (B1)
                 (B2) (A1) (A1) (B2) (A2) (A1) (A2) (B2) (A2) (A1)
                 (B1) (B2) (A1) (B1) (B1) (B2) (A2) (A1) (B2) (B1)
                 (A1) (A2) (B2) (B1) (B2) (A1) (A2) (B2) (A1) (A1)
                 (A1) (B2) (B1) (A1) (B2) (A2) (B2) (A1) (B1) (A1)
                 (B1) (A1) (A1) (B2) (B1) (A1) (A1) (A1) (B2) (A2)
                 (B2) (A1) (B2) (A1) (B2) (B1) (A1) (B1) (A2) (B2)
                 (A1) (B2) (B1) (A1) (A2) (B2) (A1) (B1) (B2) (A2)
                 (B1) (A1) (B2) (A2) (B2) (A1) (B1) (A1) (B2) (A2)
                 (A1) (B1) (A2) (A1) (B2) (B1) (A2) (B1) (B2) (A1)
                 (A1) (B1) (A1) (B2) (A2) (B2) (A1) (B2) (A1) (A1)
                 (A1) (B2) (A1) (B2) (B1) (A1) (B1) (A2) (B2) (A1)
                 (B2) (A1) (A1) (B2) (A1)
 The electronic state of the initial guess is 1-A1.
 Keep R1 ints in memory in symmetry-blocked form, NReq=206600611.
 Requested convergence on RMS density matrix=1.00D-08 within 128 cycles.
 Requested convergence on MAX density matrix=1.00D-06.
 Requested convergence on             energy=1.00D-06.
 No special actions if energy rises.
 SCF Done:  E(RHF) =  -298.883644214     A.U. after   11 cycles
            NFock= 11  Conv=0.53D-08     -V/T= 1.9998
 Range of M.O.s used for correlation:     1   190
 NBasis=   190 NAE=    15 NBE=    15 NFC=     0 NFV=     0
 NROrb=    190 NOA=    15 NOB=    15 NVA=   175 NVB=   175

 **** Warning!!: The largest alpha MO coefficient is  0.19332704D+03

 Semi-Direct transformation.
 ModeAB=           4 MOrb=            15 LenV=    4025558915
 LASXX=     12499124 LTotXX=    12499124 LenRXX=    25227312
 LTotAB=    12728188 MaxLAS=    30623250 LenRXY=           0
 NonZer=    37726436 LenScr=    57372160 LnRSAI=    30623250
 LnScr1=    46694400 LExtra=           0 Total=    159917122
 MaxDsk=          -1 SrtSym=           T ITran=            4
 JobTyp=0 Pass  1:  I=   1 to  15.
 (rs|ai) integrals will be sorted in core.
 Spin components of T(2) and E(2):
     alpha-alpha T2 =       0.2568285038D-01 E2=     -0.1236603477D+00
     alpha-beta  T2 =       0.1315124698D+00 E2=     -0.7042012907D+00
     beta-beta   T2 =       0.2568285038D-01 E2=     -0.1236603477D+00
 ANorm=    0.1087602028D+01
 E2 =    -0.9515219862D+00 EUMP2 =    -0.29983516620023D+03
 Keep R2 and R3 ints in memory in symmetry-blocked form, NReq=206608775.
 CIDS: In Core Option IDoMem=           1.
 Iterations=  50 Convergence= 0.100D-06
 Produce multiple copies of IABC intergrals
 Iteration Nr.   1
 **********************
 DD1Dir will call FoFMem   1 times, MxPair=       240
 NAB=   120 NAA=     0 NBB=     0.
 MP4(R+Q)=  0.11127841D-01
 E3=        0.23885307D-01        EUMP3=      -0.29981128089D+03
 E4(DQ)=   -0.53367322D-02        UMP4(DQ)=   -0.29981661763D+03
 E4(SDQ)=  -0.17375630D-01        UMP4(SDQ)=  -0.29982865652D+03
 DE(Corr)= -0.91564171     E(Corr)=     -299.79928593    
 NORM(A)=   0.10812384D+01
 Iteration Nr.   2
 **********************
 DD1Dir will call FoFMem   1 times, MxPair=       240
 NAB=   120 NAA=     0 NBB=     0.
 DE(Corr)= -0.93992434     E(CORR)=     -299.82356855     Delta=-2.43D-02
 NORM(A)=   0.10868946D+01
 Iteration Nr.   3
 **********************
 DD1Dir will call FoFMem   1 times, MxPair=       240
 NAB=   120 NAA=     0 NBB=     0.
 DE(Corr)= -0.93660127     E(CORR)=     -299.82024548     Delta= 3.32D-03
 NORM(A)=   0.10892204D+01
 Iteration Nr.   4
 **********************
 DD1Dir will call FoFMem   1 times, MxPair=       240
 NAB=   120 NAA=     0 NBB=     0.
 DE(Corr)= -0.93860304     E(CORR)=     -299.82224726     Delta=-2.00D-03
 NORM(A)=   0.10901645D+01
 Iteration Nr.   5
 **********************
 DD1Dir will call FoFMem   1 times, MxPair=       240
 NAB=   120 NAA=     0 NBB=     0.
 DE(Corr)= -0.93882798     E(CORR)=     -299.82247220     Delta=-2.25D-04
 NORM(A)=   0.10904172D+01
 Iteration Nr.   6
 **********************
 DD1Dir will call FoFMem   1 times, MxPair=       240
 NAB=   120 NAA=     0 NBB=     0.
 DE(Corr)= -0.93884104     E(CORR)=     -299.82248526     Delta=-1.31D-05
 NORM(A)=   0.10905054D+01
 Iteration Nr.   7
 **********************
 DD1Dir will call FoFMem   1 times, MxPair=       240
 NAB=   120 NAA=     0 NBB=     0.
 DE(Corr)= -0.93883766     E(CORR)=     -299.82248187     Delta= 3.38D-06
 NORM(A)=   0.10905212D+01
 Iteration Nr.   8
 **********************
 DD1Dir will call FoFMem   1 times, MxPair=       240
 NAB=   120 NAA=     0 NBB=     0.
 DE(Corr)= -0.93884687     E(CORR)=     -299.82249108     Delta=-9.21D-06
 NORM(A)=   0.10905281D+01
 Iteration Nr.   9
 **********************
 DD1Dir will call FoFMem   1 times, MxPair=       240
 NAB=   120 NAA=     0 NBB=     0.
 DE(Corr)= -0.93883667     E(CORR)=     -299.82248088     Delta= 1.02D-05
 NORM(A)=   0.10905315D+01
 Iteration Nr.  10
 **********************
 DD1Dir will call FoFMem   1 times, MxPair=       240
 NAB=   120 NAA=     0 NBB=     0.
 DE(Corr)= -0.93884110     E(CORR)=     -299.82248532     Delta=-4.44D-06
 NORM(A)=   0.10905301D+01
 Iteration Nr.  11
 **********************
 DD1Dir will call FoFMem   1 times, MxPair=       240
 NAB=   120 NAA=     0 NBB=     0.
 DE(Corr)= -0.93883908     E(CORR)=     -299.82248329     Delta= 2.02D-06
 NORM(A)=   0.10905291D+01
 Iteration Nr.  12
 **********************
 DD1Dir will call FoFMem   1 times, MxPair=       240
 NAB=   120 NAA=     0 NBB=     0.
 DE(Corr)= -0.93883910     E(CORR)=     -299.82248332     Delta=-2.21D-08
 NORM(A)=   0.10905282D+01
 Wavefunction amplitudes converged. E(Corr)=     -299.82248332    
 Largest amplitude= 3.14D-02
 Time for triples=     1136.94 seconds.
 T4(CCSD)= -0.33038156D-01
 T5(CCSD)=  0.29567658D-02
 CCSD(T)= -0.29985256471D+03
 Discarding MO integrals.

 **********************************************************************

            Population analysis using the SCF Density.

 **********************************************************************

 Orbital symmetries:
       Occupied  (B2) (A1) (A1) (A1) (B2) (A1) (A1) (B1) (A1) (A2)
                 (B2) (B2) (B1) (B2) (A1)
       Virtual   (A1) (B2) (A1) (B1) (A1) (A2) (A1) (B2) (B1) (B2)
                 (A1) (B2) (A1) (B1) (A1) (A1) (B2) (A1) (A1) (B1)
                 (A1) (B2) (A1) (B1) (A2) (B2) (A1) (A1) (A2) (B1)
                 (A2) (B2) (B1) (B1) (B2) (A1) (A1) (B2) (A1) (A1)
                 (A2) (B2) (A1) (B1) (B2) (A1) (B2) (B1) (A1) (A2)
                 (B2) (A1) (A1) (B2) (B2) (A2) (A1) (B1) (A1) (B1)
                 (A1) (B2) (A2) (B1) (B2) (A2) (B2) (A1) (A1) (B1)
                 (B2) (A2) (B2) (A1) (A2) (B1) (B2) (B1) (A1) (A2)
                 (B2) (B1) (A1) (A2) (B2) (B1) (A1) (A1) (B2) (A1)
                 (A1) (B2) (B1) (A1) (B2) (A2) (B2) (B1) (A1) (A1)
                 (B1) (A1) (A1) (B2) (B1) (A1) (A1) (A1) (B2) (A2)
                 (B2) (A1) (B2) (A1) (B2) (B1) (A2) (A1) (B1) (B2)
                 (A1) (B2) (B1) (A1) (A2) (B2) (A2) (B2) (A1) (B1)
                 (B2) (A2) (B1) (A1) (B2) (A1) (B1) (A1) (A2) (B2)
                 (B2) (A2) (B1) (A1) (B1) (A1) (A2) (B1) (A1) (B2)
                 (A1) (B1) (A1) (B2) (A2) (B2) (A1) (B2) (A1) (A1)
                 (A1) (B2) (A1) (B2) (B1) (A1) (B1) (A2) (B2) (A1)
                 (B2) (A1) (A1) (B2) (A1)
 The electronic state is 1-A1.
 Alpha  occ. eigenvalues --  -25.80699 -25.80696 -25.68943  -1.11040  -1.06365
 Alpha  occ. eigenvalues --   -0.93294  -0.31989  -0.18278  -0.18138  -0.15649
 Alpha  occ. eigenvalues --   -0.15553  -0.13619  -0.03800  -0.03796  -0.03726
 Alpha virt. eigenvalues --    0.30300   0.40556   0.45344   0.48251   0.48903
 Alpha virt. eigenvalues --    0.55318   0.55357   0.56206   0.56976   0.58840
 Alpha virt. eigenvalues --    0.59132   0.68767   0.69863   0.75609   0.77523
 Alpha virt. eigenvalues --    0.84201   0.95418   0.98938   1.14654   1.15164
 Alpha virt. eigenvalues --    1.28065   1.30019   1.31863   1.32934   1.33104
 Alpha virt. eigenvalues --    1.33879   1.35802   1.36810   1.37536   1.37887
 Alpha virt. eigenvalues --    1.38868   1.40747   1.42556   1.44250   1.44275
 Alpha virt. eigenvalues --    1.44925   1.46554   1.47064   1.51524   1.56315
 Alpha virt. eigenvalues --    1.56823   1.61614   1.62067   1.63288   1.70195
 Alpha virt. eigenvalues --    1.73200   1.89363   2.09949   2.11766   2.22944
 Alpha virt. eigenvalues --    2.24931   2.34356   2.41326   2.67115   3.16987
 Alpha virt. eigenvalues --    3.18537   3.18631   3.21066   3.23822   3.25441
 Alpha virt. eigenvalues --    3.27663   3.29122   3.29424   3.29981   3.30194
 Alpha virt. eigenvalues --    3.30725   3.32268   3.33252   3.36169   3.36335
 Alpha virt. eigenvalues --    3.36710   3.37788   3.37809   3.42256   3.42711
 Alpha virt. eigenvalues --    3.43176   3.43761   3.45029   3.45467   3.45984
 Alpha virt. eigenvalues --    3.47309   3.47363   3.47635   3.47901   3.48245
 Alpha virt. eigenvalues --    3.48473   3.49870   3.57804   3.58663   3.64306
 Alpha virt. eigenvalues --    3.68091   3.75202   3.75236   3.82718   4.20454
 Alpha virt. eigenvalues --    4.22642   4.23693   4.37511   4.39698   4.39959
 Alpha virt. eigenvalues --    4.64716   4.66846   4.85755   4.86767   4.98567
 Alpha virt. eigenvalues --    4.99037   5.35719   5.71968   6.11257   6.30938
 Alpha virt. eigenvalues --    6.31672   6.61902   6.98583   7.16811   7.89137
 Alpha virt. eigenvalues --    7.89484   7.89911   7.91236   7.95759   7.98698
 Alpha virt. eigenvalues --    8.05721   8.58191   9.29102   9.29538   9.29860
 Alpha virt. eigenvalues --    9.29904   9.32188   9.32219   9.32904   9.40992
 Alpha virt. eigenvalues --    9.41005   9.41122   9.41199   9.41426   9.42158
 Alpha virt. eigenvalues --    9.43431   9.53084   9.55458   9.77082   9.77991
 Alpha virt. eigenvalues --    9.79114   9.79195   9.81799   9.82394   9.84562
 Alpha virt. eigenvalues --    9.84838   9.88995   9.89849   9.90229   9.93883
 Alpha virt. eigenvalues --    9.98779  10.01076  10.01486  10.04488  10.24036
 Alpha virt. eigenvalues --   10.25163  10.70178  11.44292  11.75175  13.03823
 Alpha virt. eigenvalues --   15.09932  16.60954  17.22625  18.16773  18.21611
 Alpha virt. eigenvalues --   18.29675  18.33761  18.43383  18.61073  18.80314
 Alpha virt. eigenvalues --   21.85528  22.40322  24.07864  24.22050  24.76281
          Condensed to atoms (all electrons):
               1          2          3          4
     1  F   10.039493  -0.013688  -0.005298  -0.013688
     2  F   -0.013688   9.941684  -0.011824   0.008663
     3  H   -0.005298  -0.011824   0.172462  -0.011824
     4  F   -0.013688   0.008663  -0.011824   9.941684
 Mulliken charges:
               1
     1  F   -1.006818
     2  F   -0.924833
     3  H    0.856485
     4  F   -0.924833
 Sum of Mulliken charges =  -2.00000
 Mulliken charges with hydrogens summed into heavy atoms:
               1
     1  F   -1.006818
     2  F   -0.068349
     4  F   -0.924833
 Electronic spatial extent (au):  <R**2>=            380.9525
 Charge=             -2.0000 electrons
 Dipole moment (field-independent basis, Debye):
    X=              0.0000    Y=              0.0000    Z=             -5.3336  Tot=              5.3336
 Quadrupole moment (field-independent basis, Debye-Ang):
   XX=            -19.9261   YY=            -29.4582   ZZ=            -50.4679
   XY=             -0.0000   XZ=             -0.0000   YZ=             -0.0000
 Traceless Quadrupole moment (field-independent basis, Debye-Ang):
   XX=             13.3579   YY=              3.8259   ZZ=            -17.1838
   XY=             -0.0000   XZ=             -0.0000   YZ=             -0.0000
 Octapole moment (field-independent basis, Debye-Ang**2):
  XXX=              0.0000  YYY=              0.0000  ZZZ=            -55.9023  XYY=              0.0000
  XXY=             -0.0000  XXZ=             -2.7289  XZZ=              0.0000  YZZ=              0.0000
  YYZ=              7.8132  XYZ=              0.0000
 Hexadecapole moment (field-independent basis, Debye-Ang**3):
 XXXX=            -19.1469 YYYY=           -126.4283 ZZZZ=           -443.6006 XXXY=             -0.0000
 XXXZ=             -0.0000 YYYX=             -0.0000 YYYZ=              0.0000 ZZZX=             -0.0000
 ZZZY=              0.0000 XXYY=            -22.7097 XXZZ=            -55.5813 YYZZ=            -83.3216
 XXYZ=             -0.0000 YYXZ=             -0.0000 ZZXY=             -0.0000
 N-N= 5.390580542157D+01 E-N=-8.412078608762D+02  KE= 2.989406371602D+02
 Symmetry A1   KE= 1.806096795020D+02
 Symmetry A2   KE= 6.148380344360D+00
 Symmetry B1   KE= 1.144317900781D+01
 Symmetry B2   KE= 1.007393983060D+02
 1\1\GINC-HELIOS\SP\RCCSD(T)-Full\Aug-CC-pVTZ\F3H1(2-)\POHL\04-Jun-2025
 \0\\# CCSD(T,Full)/aug-cc-pVTZ 6D 10F\\Single-point energy of X- + Y- 
 at fixed distance R\\-2,1\F,0,0.,0.,3.2\F,0,-1.139,0.,0.\H,0,0.,0.,0.\
 F,0,1.139,0.,0.\\Version=EM64L-G16RevB.01\State=1-A1\HF=-298.8836442\M
 P2=-299.8351662\MP3=-299.8112809\MP4D=-299.8277455\MP4DQ=-299.8166176\
 MP4SDQ=-299.8286565\CCSD=-299.8224833\CCSD(T)=-299.8525647\RMSD=5.271e
 -09\PG=C02V [C2(H1F1),SGV(F2)]\\@


 I WANT TO KNOW HOW GOD CREATED THE WORLD.  I AM NOT INTERESTED IN
 THIS OR THAT PHENOMENON, IN THE SPECTRUM OF THIS OR THAT ELEMENT.
 I WANT TO KNOW HIS THOUGHTS, THE REST ARE DETAILS.
     -- ALBERT EINSTEIN
 Job cpu time:       0 days  0 hours 28 minutes 22.3 seconds.
 Elapsed time:       0 days  0 hours  2 minutes 50.7 seconds.
 File lengths (MBytes):  RWF=   1295 Int=      0 D2E=      0 Chk=      3 Scr=      1
 Normal termination of Gaussian 16 at Wed Jun  4 11:54:32 2025.
