 Entering Gaussian System, Link 0=g16
 Initial command:
 /opt/g16/l1.exe "/home/pohl/scratches/g16/Gau-1286551.inp" -scrdir="/home/pohl/scratches/g16/"
 Entering Link 1 = /opt/g16/l1.exe PID=   1286553.
  
 Copyright (c) 1988-2017, Gaussian, Inc.  All Rights Reserved.
  
 This is part of the Gaussian(R) 16 program.  It is based on
 the Gaussian(R) 09 system (copyright 2009, Gaussian, Inc.),
 the Gaussian(R) 03 system (copyright 2003, Gaussian, Inc.),
 the Gaussian(R) 98 system (copyright 1998, Gaussian, Inc.),
 the Gaussian(R) 94 system (copyright 1995, Gaussian, Inc.),
 the Gaussian 92(TM) system (copyright 1992, Gaussian, Inc.),
 the Gaussian 90(TM) system (copyright 1990, Gaussian, Inc.),
 the Gaussian 88(TM) system (copyright 1988, Gaussian, Inc.),
 the Gaussian 86(TM) system (copyright 1986, Carnegie Mellon
 University), and the Gaussian 82(TM) system (copyright 1983,
 Carnegie Mellon University). Gaussian is a federally registered
 trademark of Gaussian, Inc.
  
 This software contains proprietary and confidential information,
 including trade secrets, belonging to Gaussian, Inc.
  
 This software is provided under written license and may be
 used, copied, transmitted, or stored only in accord with that
 written license.
  
 The following legend is applicable only to US Government
 contracts under FAR:
  
                    RESTRICTED RIGHTS LEGEND
  
 Use, reproduction and disclosure by the US Government is
 subject to restrictions as set forth in subparagraphs (a)
 and (c) of the Commercial Computer Software - Restricted
 Rights clause in FAR 52.227-19.
  
 Gaussian, Inc.
 340 Quinnipiac St., Bldg. 40, Wallingford CT 06492
  
  
 ---------------------------------------------------------------
 Warning -- This program may not be used in any manner that
 competes with the business of Gaussian, Inc. or will provide
 assistance to any competitor of Gaussian, Inc.  The licensee
 of this program is prohibited from giving any competitor of
 Gaussian, Inc. access to this program.  By using this program,
 the user acknowledges that Gaussian, Inc. is engaged in the
 business of creating and licensing software in the field of
 computational chemistry and represents and warrants to the
 licensee that it is not a competitor of Gaussian, Inc. and that
 it will not use this program in any manner prohibited above.
 ---------------------------------------------------------------
  

 Cite this work as:
 Gaussian 16, Revision B.01,
 M. J. Frisch, G. W. Trucks, H. B. Schlegel, G. E. Scuseria, 
 M. A. Robb, J. R. Cheeseman, G. Scalmani, V. Barone, 
 G. A. Petersson, H. Nakatsuji, X. Li, M. Caricato, A. V. Marenich, 
 J. Bloino, B. G. Janesko, R. Gomperts, B. Mennucci, H. P. Hratchian, 
 J. V. Ortiz, A. F. Izmaylov, J. L. Sonnenberg, D. Williams-Young, 
 F. Ding, F. Lipparini, F. Egidi, J. Goings, B. Peng, A. Petrone, 
 T. Henderson, D. Ranasinghe, V. G. Zakrzewski, J. Gao, N. Rega, 
 G. Zheng, W. Liang, M. Hada, M. Ehara, K. Toyota, R. Fukuda, 
 J. Hasegawa, M. Ishida, T. Nakajima, Y. Honda, O. Kitao, H. Nakai, 
 T. Vreven, K. Throssell, J. A. Montgomery, Jr., J. E. Peralta, 
 F. Ogliaro, M. J. Bearpark, J. J. Heyd, E. N. Brothers, K. N. Kudin, 
 V. N. Staroverov, T. A. Keith, R. Kobayashi, J. Normand, 
 K. Raghavachari, A. P. Rendell, J. C. Burant, S. S. Iyengar, 
 J. Tomasi, M. Cossi, J. M. Millam, M. Klene, C. Adamo, R. Cammi, 
 J. W. Ochterski, R. L. Martin, K. Morokuma, O. Farkas, 
 J. B. Foresman, and D. J. Fox, Gaussian, Inc., Wallingford CT, 2016.
 
 ******************************************
 Gaussian 16:  EM64L-G16RevB.01 20-Dec-2017
                 7-May-2025 
 ******************************************
 %mem=30GB
 %nprocshared=10
 Will use up to   10 processors via shared memory.
 ---------------------
 # CCSD/aug-cc-pVTZ SP
 ---------------------
 1/38=1,172=1/1;
 2/12=2,17=6,18=5,40=1/2;
 3/5=16,6=1,7=10,11=9,25=1,30=1/1,2,3;
 4//1;
 5/5=2,38=5/2;
 8/6=4,9=120000,10=1/1,4;
 9/5=7/13;
 6/7=2,8=2,9=2,10=2/1;
 99/5=1,9=1/99;
 --------------------------------------------------
 Single-point energy of X- + Y- at fixed distance R
 --------------------------------------------------
 Symbolic Z-matrix:
 Charge = -2 Multiplicity = 1
 F                     0.        0.        3. 
 F                    -1.139     0.        0. 
 H                     0.        0.        0. 
 F                     1.139     0.        0. 
 
                          Input orientation:                          
 ---------------------------------------------------------------------
 Center     Atomic      Atomic             Coordinates (Angstroms)
 Number     Number       Type             X           Y           Z
 ---------------------------------------------------------------------
      1          9           0        0.000000    0.000000    3.000000
      2          9           0       -1.139000    0.000000    0.000000
      3          1           0        0.000000    0.000000    0.000000
      4          9           0        1.139000    0.000000    0.000000
 ---------------------------------------------------------------------
                    Distance matrix (angstroms):
                    1          2          3          4
     1  F    0.000000
     2  F    3.208944   0.000000
     3  H    3.000000   1.139000   0.000000
     4  F    3.208944   2.278000   1.139000   0.000000
 Stoichiometry    F3H(2-)
 Framework group  C2V[C2(HF),SGV(F2)]
 Deg. of freedom     3
 Full point group                 C2V     NOp   4
 Largest Abelian subgroup         C2V     NOp   4
 Largest concise Abelian subgroup C2      NOp   2
                         Standard orientation:                         
 ---------------------------------------------------------------------
 Center     Atomic      Atomic             Coordinates (Angstroms)
 Number     Number       Type             X           Y           Z
 ---------------------------------------------------------------------
      1          9           0       -0.000000   -0.000000    2.035714
      2          9           0        0.000000    1.139000   -0.964286
      3          1           0        0.000000    0.000000   -0.964286
      4          9           0       -0.000000   -1.139000   -0.964286
 ---------------------------------------------------------------------
 Rotational constants (GHZ):          10.2523318           4.3953365           3.0764247
 Standard basis: Aug-CC-pVTZ (5D, 7F)
 There are    74 symmetry adapted cartesian basis functions of A1  symmetry.
 There are    25 symmetry adapted cartesian basis functions of A2  symmetry.
 There are    36 symmetry adapted cartesian basis functions of B1  symmetry.
 There are    55 symmetry adapted cartesian basis functions of B2  symmetry.
 There are    60 symmetry adapted basis functions of A1  symmetry.
 There are    23 symmetry adapted basis functions of A2  symmetry.
 There are    32 symmetry adapted basis functions of B1  symmetry.
 There are    46 symmetry adapted basis functions of B2  symmetry.
   161 basis functions,   243 primitive gaussians,   190 cartesian basis functions
    15 alpha electrons       15 beta electrons
       nuclear repulsion energy        55.4814480506 Hartrees.
 NAtoms=    4 NActive=    4 NUniq=    3 SFac= 1.78D+00 NAtFMM=   60 NAOKFM=F Big=F
 Integral buffers will be    131072 words long.
 Raffenetti 1 integral format.
 Two-electron integral symmetry is turned on.
 One-electron integrals computed using PRISM.
 NBasis=   161 RedAO= T EigKep=  2.91D-04  NBF=    60    23    32    46
 NBsUse=   161 1.00D-06 EigRej= -1.00D+00 NBFU=    60    23    32    46
 ExpMin= 2.53D-02 ExpMax= 1.95D+04 ExpMxC= 6.65D+02 IAcc=3 IRadAn=         5 AccDes= 0.00D+00
 Harris functional with IExCor=  205 and IRadAn=       5 diagonalized for initial guess.
 HarFok:  IExCor=  205 AccDes= 0.00D+00 IRadAn=         5 IDoV= 1 UseB2=F ITyADJ=14
 ICtDFT=  3500011 ScaDFX=  1.000000  1.000000  1.000000  1.000000
 FoFCou: FMM=F IPFlag=           0 FMFlag=      100000 FMFlg1=           0
         NFxFlg=           0 DoJE=T BraDBF=F KetDBF=T FulRan=T
         wScrn=  0.000000 ICntrl=       500 IOpCl=  0 I1Cent=   200000004 NGrid=           0
         NMat0=    1 NMatS0=      1 NMatT0=    0 NMatD0=    1 NMtDS0=    0 NMtDT0=    0
 Petite list used in FoFCou.
 Initial guess orbital symmetries:
       Occupied  (A1) (B2) (A1) (A1) (B2) (A1) (A1) (A1) (B1) (B2)
                 (B2) (A2) (B1) (B2) (A1)
       Virtual   (A1) (A1) (B2) (B1) (A1) (A1) (B2) (B1) (A1) (A2)
                 (B2) (A1) (B2) (A1) (B1) (A1) (A1) (B1) (B2) (A1)
                 (B2) (A2) (A1) (B1) (A2) (B1) (A1) (B2) (A2) (A1)
                 (B2) (A1) (B1) (B2) (B1) (A1) (A2) (B2) (A1) (B2)
                 (A1) (B1) (A1) (B2) (A1) (A1) (B1) (A1) (B2) (A2)
                 (B2) (B2) (A1) (B1) (B2) (A2) (A1) (B2) (A2) (A1)
                 (A2) (B1) (B2) (A1) (B1) (A1) (B1) (A2) (B2) (A1)
                 (B1) (B2) (A1) (A2) (B1) (B2) (A2) (A1) (A1) (B2)
                 (B1) (A1) (B2) (A2) (B2) (A1) (B2) (B1) (A1) (B1)
                 (A1) (A1) (B1) (A1) (A1) (B1) (B2) (A1) (B1) (A1)
                 (B2) (A2) (B2) (A2) (B2) (B2) (A1) (B1) (A1) (B2)
                 (A2) (B1) (B2) (A2) (A1) (B1) (B2) (A2) (B2) (A1)
                 (B1) (A1) (B2) (B2) (A2) (A1) (A2) (B2) (B1) (A2)
                 (A1) (B1) (B1) (A1) (B2) (A1) (B1) (A1) (A1) (A2)
                 (B2) (A1) (B2) (A1) (B2) (A1)
 The electronic state of the initial guess is 1-A1.
 Keep R1 ints in memory in symmetry-blocked form, NReq=106592091.
 Requested convergence on RMS density matrix=1.00D-08 within 128 cycles.
 Requested convergence on MAX density matrix=1.00D-06.
 Requested convergence on             energy=1.00D-06.
 No special actions if energy rises.
 SCF Done:  E(RHF) =  -298.874472877     A.U. after   11 cycles
            NFock= 11  Conv=0.68D-08     -V/T= 2.0001
 ExpMin= 2.53D-02 ExpMax= 1.95D+04 ExpMxC= 6.65D+02 IAcc=3 IRadAn=         5 AccDes= 0.00D+00
 HarFok:  IExCor=  205 AccDes= 0.00D+00 IRadAn=         5 IDoV=-2 UseB2=F ITyADJ=14
 ICtDFT= 12500011 ScaDFX=  1.000000  1.000000  1.000000  1.000000
 Range of M.O.s used for correlation:     4   161
 NBasis=   161 NAE=    15 NBE=    15 NFC=     3 NFV=     0
 NROrb=    158 NOA=    12 NOB=    12 NVA=   146 NVB=   146

 **** Warning!!: The largest alpha MO coefficient is  0.19203843D+02

 Semi-Direct transformation.
 ModeAB=           4 MOrb=            12 LenV=    4025761916
 LASXX=      5679395 LTotXX=     5679395 LenRXX=    11479218
 LTotAB=     5799823 MaxLAS=    20564016 LenRXY=           0
 NonZer=    17158613 LenScr=    26512384 LnRSAI=    20564016
 LnScr1=    31613952 LExtra=           0 Total=     90169570
 MaxDsk=          -1 SrtSym=           T ITran=            4
 JobTyp=0 Pass  1:  I=   1 to  12.
 (rs|ai) integrals will be sorted in core.
 Spin components of T(2) and E(2):
     alpha-alpha T2 =       0.2553839739D-01 E2=     -0.1159718125D+00
     alpha-beta  T2 =       0.1304768180D+00 E2=     -0.6458725266D+00
     beta-beta   T2 =       0.2553839739D-01 E2=     -0.1159718125D+00
 ANorm=    0.1086992922D+01
 E2 =    -0.8778161516D+00 EUMP2 =    -0.29975228902882D+03
 Keep R2 and R3 ints in memory in symmetry-blocked form, NReq=106598451.
 CIDS: In Core Option IDoMem=           1.
 Iterations=  50 Convergence= 0.100D-06
 Produce multiple copies of IABC intergrals
 Iteration Nr.   1
 **********************
 DD1Dir will call FoFMem   1 times, MxPair=       156
 NAB=    78 NAA=     0 NBB=     0.
 MP4(R+Q)=  0.10254195D-01
 E3=        0.24121531D-01        EUMP3=      -0.29972816750D+03
 E4(DQ)=   -0.58851460D-02        UMP4(DQ)=   -0.29973405264D+03
 E4(SDQ)=  -0.18155282D-01        UMP4(SDQ)=  -0.29974632278D+03
 DE(Corr)= -0.84248341     E(Corr)=     -299.71695628    
 NORM(A)=   0.10811776D+01
 Iteration Nr.   2
 **********************
 DD1Dir will call FoFMem   1 times, MxPair=       156
 NAB=    78 NAA=     0 NBB=     0.
 DE(Corr)= -0.86637344     E(CORR)=     -299.74084631     Delta=-2.39D-02
 NORM(A)=   0.10869054D+01
 Iteration Nr.   3
 **********************
 DD1Dir will call FoFMem   1 times, MxPair=       156
 NAB=    78 NAA=     0 NBB=     0.
 DE(Corr)= -0.86316734     E(CORR)=     -299.73764021     Delta= 3.21D-03
 NORM(A)=   0.10893816D+01
 Iteration Nr.   4
 **********************
 DD1Dir will call FoFMem   1 times, MxPair=       156
 NAB=    78 NAA=     0 NBB=     0.
 DE(Corr)= -0.86520978     E(CORR)=     -299.73968265     Delta=-2.04D-03
 NORM(A)=   0.10903710D+01
 Iteration Nr.   5
 **********************
 DD1Dir will call FoFMem   1 times, MxPair=       156
 NAB=    78 NAA=     0 NBB=     0.
 DE(Corr)= -0.86542441     E(CORR)=     -299.73989729     Delta=-2.15D-04
 NORM(A)=   0.10906231D+01
 Iteration Nr.   6
 **********************
 DD1Dir will call FoFMem   1 times, MxPair=       156
 NAB=    78 NAA=     0 NBB=     0.
 DE(Corr)= -0.86543629     E(CORR)=     -299.73990917     Delta=-1.19D-05
 NORM(A)=   0.10907131D+01
 Iteration Nr.   7
 **********************
 DD1Dir will call FoFMem   1 times, MxPair=       156
 NAB=    78 NAA=     0 NBB=     0.
 DE(Corr)= -0.86543354     E(CORR)=     -299.73990642     Delta= 2.75D-06
 NORM(A)=   0.10907282D+01
 Iteration Nr.   8
 **********************
 DD1Dir will call FoFMem   1 times, MxPair=       156
 NAB=    78 NAA=     0 NBB=     0.
 DE(Corr)= -0.86544249     E(CORR)=     -299.73991536     Delta=-8.95D-06
 NORM(A)=   0.10907348D+01
 Iteration Nr.   9
 **********************
 DD1Dir will call FoFMem   1 times, MxPair=       156
 NAB=    78 NAA=     0 NBB=     0.
 DE(Corr)= -0.86543180     E(CORR)=     -299.73990468     Delta= 1.07D-05
 NORM(A)=   0.10907383D+01
 Iteration Nr.  10
 **********************
 DD1Dir will call FoFMem   1 times, MxPair=       156
 NAB=    78 NAA=     0 NBB=     0.
 DE(Corr)= -0.86543671     E(CORR)=     -299.73990959     Delta=-4.91D-06
 NORM(A)=   0.10907366D+01
 Iteration Nr.  11
 **********************
 DD1Dir will call FoFMem   1 times, MxPair=       156
 NAB=    78 NAA=     0 NBB=     0.
 DE(Corr)= -0.86543458     E(CORR)=     -299.73990745     Delta= 2.13D-06
 NORM(A)=   0.10907357D+01
 Iteration Nr.  12
 **********************
 DD1Dir will call FoFMem   1 times, MxPair=       156
 NAB=    78 NAA=     0 NBB=     0.
 DE(Corr)= -0.86543469     E(CORR)=     -299.73990756     Delta=-1.08D-07
 NORM(A)=   0.10907347D+01
 Iteration Nr.  13
 **********************
 DD1Dir will call FoFMem   1 times, MxPair=       156
 NAB=    78 NAA=     0 NBB=     0.
 DE(Corr)= -0.86543464     E(CORR)=     -299.73990752     Delta= 4.48D-08
 NORM(A)=   0.10907341D+01
 Wavefunction amplitudes converged. E(Corr)=     -299.73990752    
 Largest amplitude= 3.25D-02
 Discarding MO integrals.

 **********************************************************************

            Population analysis using the SCF Density.

 **********************************************************************

 Orbital symmetries:
       Occupied  (B2) (A1) (A1) (A1) (B2) (A1) (A1) (B1) (A1) (A2)
                 (B2) (B2) (B1) (B2) (A1)
       Virtual   (A1) (B2) (A1) (B1) (A1) (A2) (B2) (A1) (B1) (B2)
                 (A1) (B2) (B1) (A1) (A1) (A1) (B2) (A1) (B1) (A1)
                 (B2) (A2) (B1) (A1) (A1) (A2) (B1) (A1) (A2) (B2)
                 (B2) (A1) (B1) (A2) (B2) (A1) (B1) (A1) (A1) (B2)
                 (B2) (B1) (B2) (A1) (A1) (B1) (A1) (A1) (A2) (B2)
                 (B2) (B2) (A1) (B1) (B2) (A2) (A1) (B2) (A2) (A1)
                 (B1) (B2) (A2) (B1) (A1) (A2) (B2) (A1) (B1) (A2)
                 (A1) (B2) (B1) (A1) (B2) (A2) (B1) (A1) (B2) (A1)
                 (B1) (A1) (B2) (A2) (B2) (A1) (B2) (B1) (A1) (B1)
                 (A1) (A1) (B1) (A1) (A1) (B2) (B1) (B1) (B2) (A1)
                 (A1) (A2) (B2) (A2) (B2) (B2) (A1) (B1) (A1) (A2)
                 (B2) (A2) (B2) (B1) (B2) (A2) (B1) (A1) (B2) (A1)
                 (B1) (A1) (B2) (A2) (B2) (A2) (B2) (B1) (A1) (A1)
                 (B1) (A2) (A1) (B1) (B2) (A1) (B1) (A1) (A1) (A2)
                 (B2) (A1) (B2) (A1) (B2) (A1)
 The electronic state is 1-A1.
 Alpha  occ. eigenvalues --  -25.80203 -25.80200 -25.68473  -1.10312  -1.05646
 Alpha  occ. eigenvalues --   -0.92646  -0.31244  -0.17532  -0.17391  -0.14907
 Alpha  occ. eigenvalues --   -0.14808  -0.12896  -0.03121  -0.03111  -0.03027
 Alpha virt. eigenvalues --    0.31135   0.41637   0.47639   0.48995   0.49975
 Alpha virt. eigenvalues --    0.56745   0.58160   0.58788   0.59212   0.60841
 Alpha virt. eigenvalues --    0.62199   0.71023   0.77068   0.77907   0.80035
 Alpha virt. eigenvalues --    0.88647   1.05752   1.07975   1.15474   1.18753
 Alpha virt. eigenvalues --    1.30259   1.33256   1.35743   1.36164   1.37595
 Alpha virt. eigenvalues --    1.40157   1.42801   1.44642   1.46114   1.47172
 Alpha virt. eigenvalues --    1.48627   1.54852   1.58641   1.61377   1.62012
 Alpha virt. eigenvalues --    1.62435   1.62955   1.63695   1.64871   1.65819
 Alpha virt. eigenvalues --    1.69525   1.69615   1.79570   1.85242   1.87431
 Alpha virt. eigenvalues --    2.15788   2.17348   2.38161   2.40483   2.42662
 Alpha virt. eigenvalues --    2.52672   3.00356   3.09406   3.25958   3.27804
 Alpha virt. eigenvalues --    3.27829   3.30666   3.30750   3.31207   3.36291
 Alpha virt. eigenvalues --    3.36728   3.37799   3.38400   3.41687   3.42185
 Alpha virt. eigenvalues --    3.43325   3.44019   3.44154   3.46646   3.46719
 Alpha virt. eigenvalues --    3.47632   3.47936   3.48022   3.48394   3.49109
 Alpha virt. eigenvalues --    3.49367   3.49620   3.57031   3.65417   3.66574
 Alpha virt. eigenvalues --    3.76611   3.83081   3.98970   3.99041   4.01080
 Alpha virt. eigenvalues --    4.07018   4.18769   4.35245   4.36820   4.65668
 Alpha virt. eigenvalues --    4.67833   4.90162   4.95427   4.96954   5.51750
 Alpha virt. eigenvalues --    5.78318   5.81556   5.82915   5.83912   5.85981
 Alpha virt. eigenvalues --    5.90231   5.91575   5.92870   6.51185   6.51672
 Alpha virt. eigenvalues --    7.62340   8.53869   9.29860   9.30181   9.30600
 Alpha virt. eigenvalues --    9.30647   9.32921   9.32942   9.41656   9.41663
 Alpha virt. eigenvalues --    9.41810   9.41880   9.41881   9.42844   9.43136
 Alpha virt. eigenvalues --    9.54217   9.57128   9.70360   9.70602   9.72744
 Alpha virt. eigenvalues --    9.79860   9.80030   9.81436   9.81915   9.85161
 Alpha virt. eigenvalues --    9.85178   9.89904   9.90862   9.91278   9.96973
 Alpha virt. eigenvalues --   10.00354  10.01185  10.01465  10.15354  10.20090
 Alpha virt. eigenvalues --   10.21815  10.55952  10.68340  11.47076  13.67663
 Alpha virt. eigenvalues --   15.57543
          Condensed to atoms (all electrons):
               1          2          3          4
     1  F   10.050601  -0.017160  -0.005291  -0.017160
     2  F   -0.017160   9.833772   0.086448  -0.129434
     3  H   -0.005291   0.086448   0.274156   0.086448
     4  F   -0.017160  -0.129434   0.086448   9.833772
 Mulliken charges:
               1
     1  F   -1.010989
     2  F   -0.773625
     3  H    0.558240
     4  F   -0.773625
 Sum of Mulliken charges =  -2.00000
 Mulliken charges with hydrogens summed into heavy atoms:
               1
     1  F   -1.010989
     2  F   -0.215385
     4  F   -0.773625
 Electronic spatial extent (au):  <R**2>=            351.5045
 Charge=             -2.0000 electrons
 Dipole moment (field-independent basis, Debye):
    X=              0.0000    Y=              0.0000    Z=             -4.9694  Tot=              4.9694
 Quadrupole moment (field-independent basis, Debye-Ang):
   XX=            -19.9317   YY=            -29.5334   ZZ=            -47.1524
   XY=             -0.0000   XZ=             -0.0000   YZ=             -0.0000
 Traceless Quadrupole moment (field-independent basis, Debye-Ang):
   XX=             12.2741   YY=              2.6724   ZZ=            -14.9466
   XY=             -0.0000   XZ=             -0.0000   YZ=             -0.0000
 Octapole moment (field-independent basis, Debye-Ang**2):
  XXX=              0.0000  YYY=              0.0000  ZZZ=            -47.3019  XYY=              0.0000
  XXY=             -0.0000  XXZ=             -2.5181  XZZ=              0.0000  YZZ=              0.0000
  YYZ=              7.5566  XYZ=              0.0000
 Hexadecapole moment (field-independent basis, Debye-Ang**3):
 XXXX=            -18.9739 YYYY=           -126.8632 ZZZZ=           -381.0718 XXXY=             -0.0000
 XXXZ=             -0.0000 YYYX=             -0.0000 YYYZ=              0.0000 ZZZX=             -0.0000
 ZZZY=              0.0000 XXYY=            -22.7451 XXZZ=            -49.7347 YYZZ=            -76.4039
 XXYZ=              0.0000 YYXZ=             -0.0000 ZZXY=             -0.0000
 N-N= 5.548144805061D+01 E-N=-8.444576828780D+02  KE= 2.988561774408D+02
 Symmetry A1   KE= 1.805991314401D+02
 Symmetry A2   KE= 6.133227126334D+00
 Symmetry B1   KE= 1.141408564160D+01
 Symmetry B2   KE= 1.007097332328D+02
 1\1\GINC-HELIOS\SP\RCCSD-FC\Aug-CC-pVTZ\F3H1(2-)\POHL\07-May-2025\0\\#
  CCSD/aug-cc-pVTZ SP\\Single-point energy of X- + Y- at fixed distance
  R\\-2,1\F,0,0.,0.,3.\F,0,-1.139,0.,0.\H,0,0.,0.,0.\F,0,1.139,0.,0.\\V
 ersion=EM64L-G16RevB.01\State=1-A1\HF=-298.8744729\MP2=-299.752289\MP3
 =-299.7281675\MP4D=-299.7443068\MP4DQ=-299.7340526\MP4SDQ=-299.7463228
 \CCSD=-299.7399075\RMSD=6.817e-09\PG=C02V [C2(H1F1),SGV(F2)]\\@


 YOU CANNOT THROW TO THE GROUND THE LETTERS OF
 THE GREEK ALPHABET AND PICK UP THE ILIAD.
        - RUFUS CHOATE, 1799-1859
 Job cpu time:       0 days  0 hours  4 minutes 56.7 seconds.
 Elapsed time:       0 days  0 hours  0 minutes 29.8 seconds.
 File lengths (MBytes):  RWF=    726 Int=      0 D2E=      0 Chk=      3 Scr=      1
 Normal termination of Gaussian 16 at Wed May  7 11:45:08 2025.
