 Entering Gaussian System, Link 0=g16
 Initial command:
 /opt/g16/l1.exe "/home/pohl/scratches/g16/Gau-2118793.inp" -scrdir="/home/pohl/scratches/g16/"
 Entering Link 1 = /opt/g16/l1.exe PID=   2118795.
  
 Copyright (c) 1988-2017, Gaussian, Inc.  All Rights Reserved.
  
 This is part of the Gaussian(R) 16 program.  It is based on
 the Gaussian(R) 09 system (copyright 2009, Gaussian, Inc.),
 the Gaussian(R) 03 system (copyright 2003, Gaussian, Inc.),
 the Gaussian(R) 98 system (copyright 1998, Gaussian, Inc.),
 the Gaussian(R) 94 system (copyright 1995, Gaussian, Inc.),
 the Gaussian 92(TM) system (copyright 1992, Gaussian, Inc.),
 the Gaussian 90(TM) system (copyright 1990, Gaussian, Inc.),
 the Gaussian 88(TM) system (copyright 1988, Gaussian, Inc.),
 the Gaussian 86(TM) system (copyright 1986, Carnegie Mellon
 University), and the Gaussian 82(TM) system (copyright 1983,
 Carnegie Mellon University). Gaussian is a federally registered
 trademark of Gaussian, Inc.
  
 This software contains proprietary and confidential information,
 including trade secrets, belonging to Gaussian, Inc.
  
 This software is provided under written license and may be
 used, copied, transmitted, or stored only in accord with that
 written license.
  
 The following legend is applicable only to US Government
 contracts under FAR:
  
                    RESTRICTED RIGHTS LEGEND
  
 Use, reproduction and disclosure by the US Government is
 subject to restrictions as set forth in subparagraphs (a)
 and (c) of the Commercial Computer Software - Restricted
 Rights clause in FAR 52.227-19.
  
 Gaussian, Inc.
 340 Quinnipiac St., Bldg. 40, Wallingford CT 06492
  
  
 ---------------------------------------------------------------
 Warning -- This program may not be used in any manner that
 competes with the business of Gaussian, Inc. or will provide
 assistance to any competitor of Gaussian, Inc.  The licensee
 of this program is prohibited from giving any competitor of
 Gaussian, Inc. access to this program.  By using this program,
 the user acknowledges that Gaussian, Inc. is engaged in the
 business of creating and licensing software in the field of
 computational chemistry and represents and warrants to the
 licensee that it is not a competitor of Gaussian, Inc. and that
 it will not use this program in any manner prohibited above.
 ---------------------------------------------------------------
  

 Cite this work as:
 Gaussian 16, Revision B.01,
 M. J. Frisch, G. W. Trucks, H. B. Schlegel, G. E. Scuseria, 
 M. A. Robb, J. R. Cheeseman, G. Scalmani, V. Barone, 
 G. A. Petersson, H. Nakatsuji, X. Li, M. Caricato, A. V. Marenich, 
 J. Bloino, B. G. Janesko, R. Gomperts, B. Mennucci, H. P. Hratchian, 
 J. V. Ortiz, A. F. Izmaylov, J. L. Sonnenberg, D. Williams-Young, 
 F. Ding, F. Lipparini, F. Egidi, J. Goings, B. Peng, A. Petrone, 
 T. Henderson, D. Ranasinghe, V. G. Zakrzewski, J. Gao, N. Rega, 
 G. Zheng, W. Liang, M. Hada, M. Ehara, K. Toyota, R. Fukuda, 
 J. Hasegawa, M. Ishida, T. Nakajima, Y. Honda, O. Kitao, H. Nakai, 
 T. Vreven, K. Throssell, J. A. Montgomery, Jr., J. E. Peralta, 
 F. Ogliaro, M. J. Bearpark, J. J. Heyd, E. N. Brothers, K. N. Kudin, 
 V. N. Staroverov, T. A. Keith, R. Kobayashi, J. Normand, 
 K. Raghavachari, A. P. Rendell, J. C. Burant, S. S. Iyengar, 
 J. Tomasi, M. Cossi, J. M. Millam, M. Klene, C. Adamo, R. Cammi, 
 J. W. Ochterski, R. L. Martin, K. Morokuma, O. Farkas, 
 J. B. Foresman, and D. J. Fox, Gaussian, Inc., Wallingford CT, 2016.
 
 ******************************************
 Gaussian 16:  EM64L-G16RevB.01 20-Dec-2017
                30-May-2025 
 ******************************************
 %mem=30GB
 %nprocshared=10
 Will use up to   10 processors via shared memory.
 ---------------------
 # CCSD/aug-cc-pVTZ SP
 ---------------------
 1/38=1,172=1/1;
 2/12=2,17=6,18=5,40=1/2;
 3/5=16,6=1,7=10,11=9,25=1,30=1/1,2,3;
 4//1;
 5/5=2,38=5/2;
 8/6=4,9=120000,10=1/1,4;
 9/5=7/13;
 6/7=2,8=2,9=2,10=2/1;
 99/5=1,9=1/99;
 --------------------------------------------------
 Single-point energy of X- + Y- at fixed distance R
 --------------------------------------------------
 Symbolic Z-matrix:
 Charge = -2 Multiplicity = 1
 F                     0.        0.        1.5 
 Cl                   -2.14      0.        0. 
 Li                    0.        0.        0. 
 Cl                    2.14      0.        0. 
 
                          Input orientation:                          
 ---------------------------------------------------------------------
 Center     Atomic      Atomic             Coordinates (Angstroms)
 Number     Number       Type             X           Y           Z
 ---------------------------------------------------------------------
      1          9           0        0.000000    0.000000    1.500000
      2         17           0       -2.140000    0.000000    0.000000
      3          3           0        0.000000    0.000000    0.000000
      4         17           0        2.140000    0.000000    0.000000
 ---------------------------------------------------------------------
                    Distance matrix (angstroms):
                    1          2          3          4
     1  F    0.000000
     2  Cl   2.613350   0.000000
     3  Li   1.500000   2.140000   0.000000
     4  Cl   2.613350   4.280000   2.140000   0.000000
 Stoichiometry    Cl2FLi(2-)
 Framework group  C2V[C2(LiF),SGV(Cl2)]
 Deg. of freedom     3
 Full point group                 C2V     NOp   4
 Largest Abelian subgroup         C2V     NOp   4
 Largest concise Abelian subgroup C2      NOp   2
                         Standard orientation:                         
 ---------------------------------------------------------------------
 Center     Atomic      Atomic             Coordinates (Angstroms)
 Number     Number       Type             X           Y           Z
 ---------------------------------------------------------------------
      1          9           0        0.000000    0.000000    1.206522
      2         17           0       -0.000000    2.140000   -0.293478
      3          3           0       -0.000000    0.000000   -0.293478
      4         17           0       -0.000000   -2.140000   -0.293478
 ---------------------------------------------------------------------
 Rotational constants (GHZ):          14.7415300           1.5778956           1.4253318
 Standard basis: Aug-CC-pVTZ (5D, 7F)
 There are    88 symmetry adapted cartesian basis functions of A1  symmetry.
 There are    29 symmetry adapted cartesian basis functions of A2  symmetry.
 There are    45 symmetry adapted cartesian basis functions of B1  symmetry.
 There are    66 symmetry adapted cartesian basis functions of B2  symmetry.
 There are    71 symmetry adapted basis functions of A1  symmetry.
 There are    27 symmetry adapted basis functions of A2  symmetry.
 There are    39 symmetry adapted basis functions of B1  symmetry.
 There are    55 symmetry adapted basis functions of B2  symmetry.
   192 basis functions,   374 primitive gaussians,   228 cartesian basis functions
    24 alpha electrons       24 beta electrons
       nuclear repulsion energy       132.4414090367 Hartrees.
 NAtoms=    4 NActive=    4 NUniq=    3 SFac= 1.78D+00 NAtFMM=   60 NAOKFM=F Big=F
 Integral buffers will be    131072 words long.
 Raffenetti 1 integral format.
 Two-electron integral symmetry is turned on.
 One-electron integrals computed using PRISM.
 NBasis=   192 RedAO= T EigKep=  1.05D-04  NBF=    71    27    39    55
 NBsUse=   192 1.00D-06 EigRej= -1.00D+00 NBFU=    71    27    39    55
 ExpMin= 7.59D-03 ExpMax= 4.56D+05 ExpMxC= 1.44D+03 IAcc=3 IRadAn=         5 AccDes= 0.00D+00
 Harris functional with IExCor=  205 and IRadAn=       5 diagonalized for initial guess.
 HarFok:  IExCor=  205 AccDes= 0.00D+00 IRadAn=         5 IDoV= 1 UseB2=F ITyADJ=14
 ICtDFT=  3500011 ScaDFX=  1.000000  1.000000  1.000000  1.000000
 FoFCou: FMM=F IPFlag=           0 FMFlag=      100000 FMFlg1=           0
         NFxFlg=           0 DoJE=T BraDBF=F KetDBF=T FulRan=T
         wScrn=  0.000000 ICntrl=       500 IOpCl=  0 I1Cent=   200000004 NGrid=           0
         NMat0=    1 NMatS0=      1 NMatT0=    0 NMatD0=    1 NMtDS0=    0 NMtDT0=    0
 Petite list used in FoFCou.
 Initial guess orbital symmetries:
       Occupied  (A1) (B2) (A1) (A1) (B2) (B2) (A1) (B1) (A1) (A2)
                 (B2) (A1) (A1) (B2) (A1) (A1) (B2) (B1) (B2) (A1)
                 (B1) (A2) (A1) (B2)
       Virtual   (A1) (B1) (A1) (B2) (A1) (B1) (A1) (B2) (B1) (A1)
                 (A1) (B2) (A2) (B1) (A1) (B2) (A1) (B1) (A2) (A1)
                 (B2) (A1) (B2) (A2) (B2) (A1) (B1) (B2) (B1) (A1)
                 (A1) (A2) (B2) (B1) (A1) (B2) (A1) (B1) (B2) (A1)
                 (A2) (A1) (B2) (B1) (A1) (B1) (B1) (A2) (A1) (B2)
                 (A1) (B2) (A1) (B2) (B2) (A2) (A1) (A2) (B1) (A1)
                 (B1) (B2) (B2) (A1) (A1) (A2) (B1) (B2) (A1) (B1)
                 (A2) (A1) (A1) (B2) (B1) (B2) (A2) (A1) (A2) (B2)
                 (B1) (B2) (A1) (B1) (A1) (B2) (A1) (B1) (A1) (A2)
                 (B1) (B2) (A1) (B1) (B2) (A2) (A1) (B2) (A1) (B2)
                 (B1) (A2) (A1) (A1) (B2) (B2) (A1) (B1) (A1) (A2)
                 (B2) (B2) (A2) (B1) (A1) (B2) (A1) (A2) (B2) (A1)
                 (B1) (B2) (B1) (A2) (A1) (A1) (B1) (A2) (B2) (A1)
                 (B1) (A1) (A1) (B2) (B2) (B1) (A2) (A1) (A2) (B1)
                 (B2) (B1) (B2) (A2) (A1) (B2) (A1) (A1) (B2) (A1)
                 (B1) (B2) (A1) (B2) (A1) (B1) (B2) (B1) (A2) (A1)
                 (B2) (A1) (A2) (A1) (B1) (A1) (B2) (A1)
 The electronic state of the initial guess is 1-A1.
 Keep R1 ints in memory in symmetry-blocked form, NReq=215097963.
 Requested convergence on RMS density matrix=1.00D-08 within 128 cycles.
 Requested convergence on MAX density matrix=1.00D-06.
 Requested convergence on             energy=1.00D-06.
 No special actions if energy rises.
 SCF Done:  E(RHF) =  -1026.02588562     A.U. after   13 cycles
            NFock= 13  Conv=0.65D-08     -V/T= 1.9995
 ExpMin= 7.59D-03 ExpMax= 4.56D+05 ExpMxC= 1.44D+03 IAcc=3 IRadAn=         5 AccDes= 0.00D+00
 HarFok:  IExCor=  205 AccDes= 0.00D+00 IRadAn=         5 IDoV=-2 UseB2=F ITyADJ=14
 ICtDFT= 12500011 ScaDFX=  1.000000  1.000000  1.000000  1.000000
 Range of M.O.s used for correlation:    13   192
 NBasis=   192 NAE=    24 NBE=    24 NFC=    12 NFV=     0
 NROrb=    180 NOA=    12 NOB=    12 NVA=   168 NVB=   168

 **** Warning!!: The largest alpha MO coefficient is  0.31812596D+02

 Semi-Direct transformation.
 ModeAB=           4 MOrb=            12 LenV=    4025504314
 LASXX=      8444399 LTotXX=     8444399 LenRXX=    17045430
 LTotAB=     8601031 MaxLAS=    35825760 LenRXY=           0
 NonZer=    25489829 LenScr=    39014400 LnRSAI=    35825760
 LnScr1=    54512640 LExtra=           0 Total=    146398230
 MaxDsk=          -1 SrtSym=           T ITran=            4
 JobTyp=0 Pass  1:  I=   1 to  12.
 (rs|ai) integrals will be sorted in core.
 Spin components of T(2) and E(2):
     alpha-alpha T2 =       0.3060140319D-01 E2=     -0.9194715583D-01
     alpha-beta  T2 =       0.1602977419D+00 E2=     -0.5279124992D+00
     beta-beta   T2 =       0.3060140319D-01 E2=     -0.9194715583D-01
 ANorm=    0.1105215159D+01
 E2 =    -0.7118068108D+00 EUMP2 =    -0.10267376924315D+04
 Keep R2 and R3 ints in memory in symmetry-blocked form, NReq=215104949.
 CIDS: In Core Option IDoMem=           1.
 Iterations=  50 Convergence= 0.100D-06
 Produce multiple copies of IABC intergrals
 Iteration Nr.   1
 **********************
 DD1Dir will call FoFMem   1 times, MxPair=       156
 NAB=    78 NAA=     0 NBB=     0.
 MP4(R+Q)=  0.15900970D-01
 E3=       -0.26202363D-01        EUMP3=      -0.10267638948D+04
 E4(DQ)=    0.29323554D-02        UMP4(DQ)=   -0.10267609624D+04
 E4(SDQ)=  -0.19470254D-02        UMP4(SDQ)=  -0.10267658418D+04
 DE(Corr)= -0.72178198     E(Corr)=     -1026.7476676    
 NORM(A)=   0.11104241D+01
 Iteration Nr.   2
 **********************
 DD1Dir will call FoFMem   1 times, MxPair=       156
 NAB=    78 NAA=     0 NBB=     0.
 DE(Corr)= -0.73632104     E(CORR)=     -1026.7622067     Delta=-1.45D-02
 NORM(A)=   0.11155346D+01
 Iteration Nr.   3
 **********************
 DD1Dir will call FoFMem   1 times, MxPair=       156
 NAB=    78 NAA=     0 NBB=     0.
 DE(Corr)= -0.73584166     E(CORR)=     -1026.7617273     Delta= 4.79D-04
 NORM(A)=   0.11171009D+01
 Iteration Nr.   4
 **********************
 DD1Dir will call FoFMem   1 times, MxPair=       156
 NAB=    78 NAA=     0 NBB=     0.
 DE(Corr)= -0.73706341     E(CORR)=     -1026.7629490     Delta=-1.22D-03
 NORM(A)=   0.11176272D+01
 Iteration Nr.   5
 **********************
 DD1Dir will call FoFMem   1 times, MxPair=       156
 NAB=    78 NAA=     0 NBB=     0.
 DE(Corr)= -0.73719648     E(CORR)=     -1026.7630821     Delta=-1.33D-04
 NORM(A)=   0.11179537D+01
 Iteration Nr.   6
 **********************
 DD1Dir will call FoFMem   1 times, MxPair=       156
 NAB=    78 NAA=     0 NBB=     0.
 DE(Corr)= -0.73721778     E(CORR)=     -1026.7631034     Delta=-2.13D-05
 NORM(A)=   0.11181230D+01
 Iteration Nr.   7
 **********************
 DD1Dir will call FoFMem   1 times, MxPair=       156
 NAB=    78 NAA=     0 NBB=     0.
 DE(Corr)= -0.73722139     E(CORR)=     -1026.7631070     Delta=-3.61D-06
 NORM(A)=   0.11181779D+01
 Iteration Nr.   8
 **********************
 DD1Dir will call FoFMem   1 times, MxPair=       156
 NAB=    78 NAA=     0 NBB=     0.
 DE(Corr)= -0.73723701     E(CORR)=     -1026.7631226     Delta=-1.56D-05
 NORM(A)=   0.11182071D+01
 Iteration Nr.   9
 **********************
 DD1Dir will call FoFMem   1 times, MxPair=       156
 NAB=    78 NAA=     0 NBB=     0.
 DE(Corr)= -0.73722242     E(CORR)=     -1026.7631080     Delta= 1.46D-05
 NORM(A)=   0.11182311D+01
 Iteration Nr.  10
 **********************
 DD1Dir will call FoFMem   1 times, MxPair=       156
 NAB=    78 NAA=     0 NBB=     0.
 DE(Corr)= -0.73722708     E(CORR)=     -1026.7631127     Delta=-4.66D-06
 NORM(A)=   0.11182291D+01
 Iteration Nr.  11
 **********************
 DD1Dir will call FoFMem   1 times, MxPair=       156
 NAB=    78 NAA=     0 NBB=     0.
 DE(Corr)= -0.73722469     E(CORR)=     -1026.7631103     Delta= 2.39D-06
 NORM(A)=   0.11182325D+01
 Iteration Nr.  12
 **********************
 DD1Dir will call FoFMem   1 times, MxPair=       156
 NAB=    78 NAA=     0 NBB=     0.
 DE(Corr)= -0.73722367     E(CORR)=     -1026.7631093     Delta= 1.02D-06
 NORM(A)=   0.11182295D+01
 Iteration Nr.  13
 **********************
 DD1Dir will call FoFMem   1 times, MxPair=       156
 NAB=    78 NAA=     0 NBB=     0.
 DE(Corr)= -0.73722321     E(CORR)=     -1026.7631088     Delta= 4.67D-07
 NORM(A)=   0.11182276D+01
 Iteration Nr.  14
 **********************
 DD1Dir will call FoFMem   1 times, MxPair=       156
 NAB=    78 NAA=     0 NBB=     0.
 DE(Corr)= -0.73722309     E(CORR)=     -1026.7631087     Delta= 1.15D-07
 NORM(A)=   0.11182266D+01
 Iteration Nr.  15
 **********************
 DD1Dir will call FoFMem   1 times, MxPair=       156
 NAB=    78 NAA=     0 NBB=     0.
 DE(Corr)= -0.73722289     E(CORR)=     -1026.7631085     Delta= 2.05D-07
 NORM(A)=   0.11182255D+01
 Iteration Nr.  16
 **********************
 DD1Dir will call FoFMem   1 times, MxPair=       156
 NAB=    78 NAA=     0 NBB=     0.
 DE(Corr)= -0.73722285     E(CORR)=     -1026.7631085     Delta= 4.11D-08
 NORM(A)=   0.11182247D+01
 Iteration Nr.  17
 **********************
 DD1Dir will call FoFMem   1 times, MxPair=       156
 NAB=    78 NAA=     0 NBB=     0.
 DE(Corr)= -0.73722277     E(CORR)=     -1026.7631084     Delta= 7.41D-08
 NORM(A)=   0.11182241D+01
 Wavefunction amplitudes converged. E(Corr)=     -1026.7631084    
 Largest amplitude= 1.90D-02
 Discarding MO integrals.

 **********************************************************************

            Population analysis using the SCF Density.

 **********************************************************************

 Orbital symmetries:
       Occupied  (B2) (A1) (A1) (B2) (A1) (B2) (A1) (B1) (A2) (A1)
                 (B2) (A1) (A1) (B2) (A1) (B2) (A1) (B1) (A1) (B2)
                 (A2) (B1) (A1) (B2)
       Virtual   (A1) (B1) (B2) (A1) (A1) (B1) (B2) (A1) (A1) (B2)
                 (A1) (B1) (B2) (A2) (B1) (A1) (B2) (A2) (A1) (A1)
                 (B1) (A1) (B2) (A1) (B2) (B1) (A2) (A1) (B2) (B1)
                 (A1) (B2) (A1) (B1) (A2) (B1) (A1) (A1) (B2) (B1)
                 (A1) (A2) (B1) (B2) (A1) (B2) (A2) (B2) (A1) (B1)
                 (A1) (B2) (B2) (A1) (A1) (B2) (A2) (B1) (A2) (A1)
                 (B1) (B2) (A2) (A1) (B2) (B1) (B2) (A1) (B1) (A1)
                 (A1) (A2) (A1) (B1) (B2) (A2) (B2) (A2) (A1) (B2)
                 (B1) (A1) (B2) (B1) (A1) (B2) (B1) (A1) (B2) (A2)
                 (B1) (A1) (A1) (B1) (B2) (A2) (B2) (A1) (B2) (A2)
                 (A1) (B1) (A1) (A1) (B2) (B2) (A1) (B1) (A1) (A2)
                 (B2) (B2) (A2) (B1) (A1) (B2) (A1) (A2) (B2) (B1)
                 (A1) (B1) (A1) (B2) (A2) (A1) (B1) (A2) (B1) (A1)
                 (B2) (A1) (B2) (B2) (B1) (A2) (A1) (A1) (A2) (B1)
                 (B2) (A2) (B1) (B2) (A1) (B2) (A1) (A1) (B2) (A1)
                 (B1) (B2) (A1) (B2) (A1) (B1) (B2) (A2) (B1) (A1)
                 (B2) (A1) (A2) (A1) (B1) (A1) (B2) (A1)
 The electronic state is 1-A1.
 Alpha  occ. eigenvalues -- -104.40627-104.40627 -25.74145 -10.13155 -10.13155
 Alpha  occ. eigenvalues --   -7.59759  -7.59759  -7.59747  -7.59747  -7.59744
 Alpha  occ. eigenvalues --   -7.59744  -1.98533  -1.02101  -0.64647  -0.64376
 Alpha  occ. eigenvalues --   -0.15195  -0.14624  -0.12219  -0.06923  -0.06829
 Alpha  occ. eigenvalues --   -0.05701  -0.05451  -0.04572  -0.02288
 Alpha virt. eigenvalues --    0.15885   0.16324   0.16531   0.17151   0.27718
 Alpha virt. eigenvalues --    0.28851   0.30156   0.30465   0.34602   0.34685
 Alpha virt. eigenvalues --    0.34709   0.34802   0.37226   0.37302   0.38830
 Alpha virt. eigenvalues --    0.39040   0.42170   0.42511   0.44724   0.46105
 Alpha virt. eigenvalues --    0.49335   0.52335   0.53694   0.59511   0.59713
 Alpha virt. eigenvalues --    0.60231   0.61971   0.62113   0.62535   0.62661
 Alpha virt. eigenvalues --    0.63316   0.66663   0.68340   0.69527   0.71897
 Alpha virt. eigenvalues --    0.73380   0.75135   0.76748   0.77414   0.77650
 Alpha virt. eigenvalues --    0.79776   0.80173   0.80544   0.80757   0.81568
 Alpha virt. eigenvalues --    0.83204   0.85863   0.86891   0.87428   0.91893
 Alpha virt. eigenvalues --    0.93613   0.96242   1.07453   1.12552   1.16054
 Alpha virt. eigenvalues --    1.18232   1.18883   1.19990   1.23592   1.24370
 Alpha virt. eigenvalues --    1.25634   1.27092   1.27770   1.27913   1.28230
 Alpha virt. eigenvalues --    1.28792   1.30659   1.31933   1.34745   1.34889
 Alpha virt. eigenvalues --    1.35757   1.43336   1.44201   1.45472   1.47684
 Alpha virt. eigenvalues --    1.48269   1.51086   1.51548   1.55468   1.57629
 Alpha virt. eigenvalues --    1.57714   1.58662   1.60029   1.61281   1.63169
 Alpha virt. eigenvalues --    1.64868   1.68270   1.69052   1.71673   1.72448
 Alpha virt. eigenvalues --    1.72563   1.73473   1.78689   1.85605   1.88195
 Alpha virt. eigenvalues --    1.90210   2.04903   2.07063   2.08768   2.11046
 Alpha virt. eigenvalues --    2.17393   2.21585   2.22415   2.29690   2.41490
 Alpha virt. eigenvalues --    2.47811   2.93618   2.96289   2.97953   3.01453
 Alpha virt. eigenvalues --    3.01834   3.04714   3.04836   3.06535   3.12800
 Alpha virt. eigenvalues --    3.17393   3.17507   3.27040   3.31707   3.36216
 Alpha virt. eigenvalues --    3.37174   3.41735   3.42248   3.42766   3.44734
 Alpha virt. eigenvalues --    3.45633   3.46655   3.47332   3.49629   3.49898
 Alpha virt. eigenvalues --    3.50459   3.53243   3.54799   3.59628   3.60449
 Alpha virt. eigenvalues --    3.61636   3.64072   3.65429   3.70477   3.70532
 Alpha virt. eigenvalues --    3.71546   3.79008   3.80677   3.81869   3.84309
 Alpha virt. eigenvalues --    3.91119   3.92355   3.98734   4.02042   5.47117
 Alpha virt. eigenvalues --    6.08464   6.28319   6.30368   7.05507   7.56149
 Alpha virt. eigenvalues --    9.40350   9.45727   9.46333   9.47060   9.50125
 Alpha virt. eigenvalues --    9.52437   9.65203   9.93480   9.98500  10.01582
 Alpha virt. eigenvalues --   10.03717  10.08353  13.33093
          Condensed to atoms (all electrons):
               1          2          3          4
     1  F    9.969052  -0.124952   0.059404  -0.124952
     2  Cl  -0.124952  17.946625   0.094859  -0.024970
     3  Li   0.059404   0.094859   2.189202   0.094859
     4  Cl  -0.124952  -0.024970   0.094859  17.946625
 Mulliken charges:
               1
     1  F   -0.778552
     2  Cl  -0.891562
     3  Li   0.561675
     4  Cl  -0.891562
 Sum of Mulliken charges =  -2.00000
 Mulliken charges with hydrogens summed into heavy atoms:
               1
     1  F   -0.778552
     2  Cl  -0.891562
     3  Li   0.561675
     4  Cl  -0.891562
 Electronic spatial extent (au):  <R**2>=            746.9451
 Charge=             -2.0000 electrons
 Dipole moment (field-independent basis, Debye):
    X=              0.0000    Y=              0.0000    Z=             -1.5553  Tot=              1.5553
 Quadrupole moment (field-independent basis, Debye-Ang):
   XX=            -41.1539   YY=            -88.1478   ZZ=            -49.2406
   XY=             -0.0000   XZ=             -0.0000   YZ=              0.0000
 Traceless Quadrupole moment (field-independent basis, Debye-Ang):
   XX=             18.3602   YY=            -28.6337   ZZ=             10.2735
   XY=             -0.0000   XZ=             -0.0000   YZ=              0.0000
 Octapole moment (field-independent basis, Debye-Ang**2):
  XXX=              0.0000  YYY=              0.0000  ZZZ=              5.3620  XYY=              0.0000
  XXY=              0.0000  XXZ=              4.0959  XZZ=              0.0000  YZZ=             -0.0000
  YYZ=             27.1654  XYZ=              0.0000
 Hexadecapole moment (field-independent basis, Debye-Ang**3):
 XXXX=            -64.1652 YYYY=          -1259.3389 ZZZZ=           -157.0287 XXXY=             -0.0000
 XXXZ=             -0.0000 YYYX=             -0.0000 YYYZ=             -0.0000 ZZZX=             -0.0000
 ZZZY=             -0.0000 XXYY=           -182.5190 XXZZ=            -35.3308 YYZZ=           -205.9324
 XXYZ=             -0.0000 YYXZ=             -0.0000 ZZXY=             -0.0000
 N-N= 1.324414090367D+02 E-N=-2.732596717793D+03  KE= 1.026535452259D+03
 Symmetry A1   KE= 5.098643474197D+02
 Symmetry A2   KE= 4.529948585332D+01
 Symmetry B1   KE= 5.088615399702D+01
 Symmetry B2   KE= 4.204854649894D+02
 1\1\GINC-HELIOS\SP\RCCSD-FC\Aug-CC-pVTZ\Cl2F1Li1(2-)\POHL\30-May-2025\
 0\\# CCSD/aug-cc-pVTZ SP\\Single-point energy of X- + Y- at fixed dist
 ance R\\-2,1\F,0,0.,0.,1.5\Cl,0,-2.14,0.,0.\Li,0,0.,0.,0.\Cl,0,2.14,0.
 ,0.\\Version=EM64L-G16RevB.01\State=1-A1\HF=-1026.0258856\MP2=-1026.73
 76924\MP3=-1026.7638948\MP4D=-1026.7768634\MP4DQ=-1026.7609624\MP4SDQ=
 -1026.7658418\CCSD=-1026.7631084\RMSD=6.519e-09\PG=C02V [C2(Li1F1),SGV
 (Cl2)]\\@


 EDUCATION DOESN'T COST 
           ... IT PAYS!

 -- POSTMARK, UNIV. OF MISSISSIPPI, DEC 78
 Job cpu time:       0 days  0 hours  9 minutes 51.1 seconds.
 Elapsed time:       0 days  0 hours  0 minutes 59.5 seconds.
 File lengths (MBytes):  RWF=   1166 Int=      0 D2E=      0 Chk=      4 Scr=      1
 Normal termination of Gaussian 16 at Fri May 30 10:21:46 2025.
