 Entering Gaussian System, Link 0=g16
 Initial command:
 /opt/g16/l1.exe "/home/pohl/scratches/g16/Gau-2118924.inp" -scrdir="/home/pohl/scratches/g16/"
 Entering Link 1 = /opt/g16/l1.exe PID=   2118926.
  
 Copyright (c) 1988-2017, Gaussian, Inc.  All Rights Reserved.
  
 This is part of the Gaussian(R) 16 program.  It is based on
 the Gaussian(R) 09 system (copyright 2009, Gaussian, Inc.),
 the Gaussian(R) 03 system (copyright 2003, Gaussian, Inc.),
 the Gaussian(R) 98 system (copyright 1998, Gaussian, Inc.),
 the Gaussian(R) 94 system (copyright 1995, Gaussian, Inc.),
 the Gaussian 92(TM) system (copyright 1992, Gaussian, Inc.),
 the Gaussian 90(TM) system (copyright 1990, Gaussian, Inc.),
 the Gaussian 88(TM) system (copyright 1988, Gaussian, Inc.),
 the Gaussian 86(TM) system (copyright 1986, Carnegie Mellon
 University), and the Gaussian 82(TM) system (copyright 1983,
 Carnegie Mellon University). Gaussian is a federally registered
 trademark of Gaussian, Inc.
  
 This software contains proprietary and confidential information,
 including trade secrets, belonging to Gaussian, Inc.
  
 This software is provided under written license and may be
 used, copied, transmitted, or stored only in accord with that
 written license.
  
 The following legend is applicable only to US Government
 contracts under FAR:
  
                    RESTRICTED RIGHTS LEGEND
  
 Use, reproduction and disclosure by the US Government is
 subject to restrictions as set forth in subparagraphs (a)
 and (c) of the Commercial Computer Software - Restricted
 Rights clause in FAR 52.227-19.
  
 Gaussian, Inc.
 340 Quinnipiac St., Bldg. 40, Wallingford CT 06492
  
  
 ---------------------------------------------------------------
 Warning -- This program may not be used in any manner that
 competes with the business of Gaussian, Inc. or will provide
 assistance to any competitor of Gaussian, Inc.  The licensee
 of this program is prohibited from giving any competitor of
 Gaussian, Inc. access to this program.  By using this program,
 the user acknowledges that Gaussian, Inc. is engaged in the
 business of creating and licensing software in the field of
 computational chemistry and represents and warrants to the
 licensee that it is not a competitor of Gaussian, Inc. and that
 it will not use this program in any manner prohibited above.
 ---------------------------------------------------------------
  

 Cite this work as:
 Gaussian 16, Revision B.01,
 M. J. Frisch, G. W. Trucks, H. B. Schlegel, G. E. Scuseria, 
 M. A. Robb, J. R. Cheeseman, G. Scalmani, V. Barone, 
 G. A. Petersson, H. Nakatsuji, X. Li, M. Caricato, A. V. Marenich, 
 J. Bloino, B. G. Janesko, R. Gomperts, B. Mennucci, H. P. Hratchian, 
 J. V. Ortiz, A. F. Izmaylov, J. L. Sonnenberg, D. Williams-Young, 
 F. Ding, F. Lipparini, F. Egidi, J. Goings, B. Peng, A. Petrone, 
 T. Henderson, D. Ranasinghe, V. G. Zakrzewski, J. Gao, N. Rega, 
 G. Zheng, W. Liang, M. Hada, M. Ehara, K. Toyota, R. Fukuda, 
 J. Hasegawa, M. Ishida, T. Nakajima, Y. Honda, O. Kitao, H. Nakai, 
 T. Vreven, K. Throssell, J. A. Montgomery, Jr., J. E. Peralta, 
 F. Ogliaro, M. J. Bearpark, J. J. Heyd, E. N. Brothers, K. N. Kudin, 
 V. N. Staroverov, T. A. Keith, R. Kobayashi, J. Normand, 
 K. Raghavachari, A. P. Rendell, J. C. Burant, S. S. Iyengar, 
 J. Tomasi, M. Cossi, J. M. Millam, M. Klene, C. Adamo, R. Cammi, 
 J. W. Ochterski, R. L. Martin, K. Morokuma, O. Farkas, 
 J. B. Foresman, and D. J. Fox, Gaussian, Inc., Wallingford CT, 2016.
 
 ******************************************
 Gaussian 16:  EM64L-G16RevB.01 20-Dec-2017
                30-May-2025 
 ******************************************
 %mem=30GB
 %nprocshared=10
 Will use up to   10 processors via shared memory.
 ---------------------
 # CCSD/aug-cc-pVTZ SP
 ---------------------
 1/38=1,172=1/1;
 2/12=2,17=6,18=5,40=1/2;
 3/5=16,6=1,7=10,11=9,25=1,30=1/1,2,3;
 4//1;
 5/5=2,38=5/2;
 8/6=4,9=120000,10=1/1,4;
 9/5=7/13;
 6/7=2,8=2,9=2,10=2/1;
 99/5=1,9=1/99;
 --------------------------------------------------
 Single-point energy of X- + Y- at fixed distance R
 --------------------------------------------------
 Symbolic Z-matrix:
 Charge = -2 Multiplicity = 1
 F                     0.        0.        2.2 
 Cl                   -2.14      0.        0. 
 Li                    0.        0.        0. 
 Cl                    2.14      0.        0. 
 
                          Input orientation:                          
 ---------------------------------------------------------------------
 Center     Atomic      Atomic             Coordinates (Angstroms)
 Number     Number       Type             X           Y           Z
 ---------------------------------------------------------------------
      1          9           0        0.000000    0.000000    2.200000
      2         17           0       -2.140000    0.000000    0.000000
      3          3           0        0.000000    0.000000    0.000000
      4         17           0        2.140000    0.000000    0.000000
 ---------------------------------------------------------------------
                    Distance matrix (angstroms):
                    1          2          3          4
     1  F    0.000000
     2  Cl   3.069137   0.000000
     3  Li   2.200000   2.140000   0.000000
     4  Cl   3.069137   4.280000   2.140000   0.000000
 Stoichiometry    Cl2FLi(2-)
 Framework group  C2V[C2(LiF),SGV(Cl2)]
 Deg. of freedom     3
 Full point group                 C2V     NOp   4
 Largest Abelian subgroup         C2V     NOp   4
 Largest concise Abelian subgroup C2      NOp   2
                         Standard orientation:                         
 ---------------------------------------------------------------------
 Center     Atomic      Atomic             Coordinates (Angstroms)
 Number     Number       Type             X           Y           Z
 ---------------------------------------------------------------------
      1          9           0        0.000000    0.000000    1.769565
      2         17           0       -0.000000    2.140000   -0.430435
      3          3           0       -0.000000    0.000000   -0.430435
      4         17           0       -0.000000   -2.140000   -0.430435
 ---------------------------------------------------------------------
 Rotational constants (GHZ):           6.8529840           1.5778956           1.2825819
 Standard basis: Aug-CC-pVTZ (5D, 7F)
 There are    88 symmetry adapted cartesian basis functions of A1  symmetry.
 There are    29 symmetry adapted cartesian basis functions of A2  symmetry.
 There are    45 symmetry adapted cartesian basis functions of B1  symmetry.
 There are    66 symmetry adapted cartesian basis functions of B2  symmetry.
 There are    71 symmetry adapted basis functions of A1  symmetry.
 There are    27 symmetry adapted basis functions of A2  symmetry.
 There are    39 symmetry adapted basis functions of B1  symmetry.
 There are    55 symmetry adapted basis functions of B2  symmetry.
   192 basis functions,   374 primitive gaussians,   228 cartesian basis functions
    24 alpha electrons       24 beta electrons
       nuclear repulsion energy       120.2089258104 Hartrees.
 NAtoms=    4 NActive=    4 NUniq=    3 SFac= 1.78D+00 NAtFMM=   60 NAOKFM=F Big=F
 Integral buffers will be    131072 words long.
 Raffenetti 1 integral format.
 Two-electron integral symmetry is turned on.
 One-electron integrals computed using PRISM.
 NBasis=   192 RedAO= T EigKep=  1.07D-04  NBF=    71    27    39    55
 NBsUse=   192 1.00D-06 EigRej= -1.00D+00 NBFU=    71    27    39    55
 ExpMin= 7.59D-03 ExpMax= 4.56D+05 ExpMxC= 1.44D+03 IAcc=3 IRadAn=         5 AccDes= 0.00D+00
 Harris functional with IExCor=  205 and IRadAn=       5 diagonalized for initial guess.
 HarFok:  IExCor=  205 AccDes= 0.00D+00 IRadAn=         5 IDoV= 1 UseB2=F ITyADJ=14
 ICtDFT=  3500011 ScaDFX=  1.000000  1.000000  1.000000  1.000000
 FoFCou: FMM=F IPFlag=           0 FMFlag=      100000 FMFlg1=           0
         NFxFlg=           0 DoJE=T BraDBF=F KetDBF=T FulRan=T
         wScrn=  0.000000 ICntrl=       500 IOpCl=  0 I1Cent=   200000004 NGrid=           0
         NMat0=    1 NMatS0=      1 NMatT0=    0 NMatD0=    1 NMtDS0=    0 NMtDT0=    0
 Petite list used in FoFCou.
 Initial guess orbital symmetries:
       Occupied  (A1) (B2) (A1) (A1) (B2) (B2) (A1) (B1) (A1) (B2)
                 (A2) (A1) (A1) (B2) (A1) (A1) (B2) (B1) (B2) (A1)
                 (B1) (A1) (A2) (B2)
       Virtual   (A1) (B1) (A1) (B2) (A1) (B1) (A1) (B2) (B1) (A1)
                 (A1) (B2) (A2) (B1) (A1) (B2) (A1) (B1) (A1) (A2)
                 (B2) (A1) (B2) (A2) (B2) (A1) (B1) (B1) (B2) (A1)
                 (A1) (B2) (A1) (A2) (B1) (B2) (B2) (A1) (B1) (A1)
                 (B1) (A1) (A2) (B2) (B1) (A1) (A1) (B1) (A2) (A1)
                 (B2) (B2) (A1) (B2) (B2) (A2) (B1) (A2) (A1) (A1)
                 (B2) (B1) (A1) (B2) (A1) (A2) (B1) (B2) (A1) (A1)
                 (B1) (A2) (B2) (B1) (A1) (A2) (A1) (B2) (B2) (A2)
                 (B1) (A1) (B2) (B2) (A1) (A2) (B1) (A1) (B1) (A1)
                 (B1) (B2) (A1) (B1) (A1) (B1) (A1) (B2) (A2) (B2)
                 (B2) (A1) (B2) (A2) (A1) (B2) (A1) (B1) (A1) (A2)
                 (B2) (B2) (A2) (B1) (A1) (A1) (B2) (A2) (B2) (A1)
                 (A2) (B1) (A1) (B1) (A1) (B2) (B1) (A2) (B2) (A1)
                 (A1) (B1) (A1) (B2) (B2) (A2) (A1) (B1) (B1) (A1)
                 (B2) (A2) (B1) (A1) (B2) (A2) (A1) (B2) (B2) (A1)
                 (B1) (B2) (A1) (B2) (A1) (B1) (A2) (B2) (A1) (B1)
                 (A1) (B2) (A2) (A1) (B1) (A1) (B2) (A1)
 The electronic state of the initial guess is 1-A1.
 Keep R1 ints in memory in symmetry-blocked form, NReq=215097955.
 Requested convergence on RMS density matrix=1.00D-08 within 128 cycles.
 Requested convergence on MAX density matrix=1.00D-06.
 Requested convergence on             energy=1.00D-06.
 No special actions if energy rises.
 SCF Done:  E(RHF) =  -1026.04982518     A.U. after   11 cycles
            NFock= 11  Conv=0.88D-08     -V/T= 1.9999
 ExpMin= 7.59D-03 ExpMax= 4.56D+05 ExpMxC= 1.44D+03 IAcc=3 IRadAn=         5 AccDes= 0.00D+00
 HarFok:  IExCor=  205 AccDes= 0.00D+00 IRadAn=         5 IDoV=-2 UseB2=F ITyADJ=14
 ICtDFT= 12500011 ScaDFX=  1.000000  1.000000  1.000000  1.000000
 Range of M.O.s used for correlation:    13   192
 NBasis=   192 NAE=    24 NBE=    24 NFC=    12 NFV=     0
 NROrb=    180 NOA=    12 NOB=    12 NVA=   168 NVB=   168

 **** Warning!!: The largest alpha MO coefficient is  0.33709060D+02

 Semi-Direct transformation.
 ModeAB=           4 MOrb=            12 LenV=    4025507934
 LASXX=      8444399 LTotXX=     8444399 LenRXX=    17045430
 LTotAB=     8601031 MaxLAS=    35652960 LenRXY=           0
 NonZer=    25489829 LenScr=    39014400 LnRSAI=    35652960
 LnScr1=    54237184 LExtra=           0 Total=    145949974
 MaxDsk=          -1 SrtSym=           T ITran=            4
 JobTyp=0 Pass  1:  I=   1 to  12.
 (rs|ai) integrals will be sorted in core.
 Spin components of T(2) and E(2):
     alpha-alpha T2 =       0.3088420231D-01 E2=     -0.9185483911D-01
     alpha-beta  T2 =       0.1624184925D+00 E2=     -0.5300083019D+00
     beta-beta   T2 =       0.3088420231D-01 E2=     -0.9185483911D-01
 ANorm=    0.1106429798D+01
 E2 =    -0.7137179801D+00 EUMP2 =    -0.10267635431619D+04
 Keep R2 and R3 ints in memory in symmetry-blocked form, NReq=215104941.
 CIDS: In Core Option IDoMem=           1.
 Iterations=  50 Convergence= 0.100D-06
 Produce multiple copies of IABC intergrals
 Iteration Nr.   1
 **********************
 DD1Dir will call FoFMem   1 times, MxPair=       156
 NAB=    78 NAA=     0 NBB=     0.
 MP4(R+Q)=  0.15509470D-01
 E3=       -0.23462873D-01        EUMP3=      -0.10267870060D+04
 E4(DQ)=    0.14853665D-02        UMP4(DQ)=   -0.10267855207D+04
 E4(SDQ)=  -0.42625435D-02        UMP4(SDQ)=  -0.10267912686D+04
 DE(Corr)= -0.72119747     E(Corr)=     -1026.7710227    
 NORM(A)=   0.11114727D+01
 Iteration Nr.   2
 **********************
 DD1Dir will call FoFMem   1 times, MxPair=       156
 NAB=    78 NAA=     0 NBB=     0.
 DE(Corr)= -0.73737126     E(CORR)=     -1026.7871964     Delta=-1.62D-02
 NORM(A)=   0.11166078D+01
 Iteration Nr.   3
 **********************
 DD1Dir will call FoFMem   1 times, MxPair=       156
 NAB=    78 NAA=     0 NBB=     0.
 DE(Corr)= -0.73615088     E(CORR)=     -1026.7859761     Delta= 1.22D-03
 NORM(A)=   0.11184023D+01
 Iteration Nr.   4
 **********************
 DD1Dir will call FoFMem   1 times, MxPair=       156
 NAB=    78 NAA=     0 NBB=     0.
 DE(Corr)= -0.73763131     E(CORR)=     -1026.7874565     Delta=-1.48D-03
 NORM(A)=   0.11189681D+01
 Iteration Nr.   5
 **********************
 DD1Dir will call FoFMem   1 times, MxPair=       156
 NAB=    78 NAA=     0 NBB=     0.
 DE(Corr)= -0.73778261     E(CORR)=     -1026.7876078     Delta=-1.51D-04
 NORM(A)=   0.11192843D+01
 Iteration Nr.   6
 **********************
 DD1Dir will call FoFMem   1 times, MxPair=       156
 NAB=    78 NAA=     0 NBB=     0.
 DE(Corr)= -0.73780448     E(CORR)=     -1026.7876297     Delta=-2.19D-05
 NORM(A)=   0.11194396D+01
 Iteration Nr.   7
 **********************
 DD1Dir will call FoFMem   1 times, MxPair=       156
 NAB=    78 NAA=     0 NBB=     0.
 DE(Corr)= -0.73780669     E(CORR)=     -1026.7876319     Delta=-2.21D-06
 NORM(A)=   0.11194889D+01
 Iteration Nr.   8
 **********************
 DD1Dir will call FoFMem   1 times, MxPair=       156
 NAB=    78 NAA=     0 NBB=     0.
 DE(Corr)= -0.73782229     E(CORR)=     -1026.7876475     Delta=-1.56D-05
 NORM(A)=   0.11195106D+01
 Iteration Nr.   9
 **********************
 DD1Dir will call FoFMem   1 times, MxPair=       156
 NAB=    78 NAA=     0 NBB=     0.
 DE(Corr)= -0.73780824     E(CORR)=     -1026.7876334     Delta= 1.40D-05
 NORM(A)=   0.11195297D+01
 Iteration Nr.  10
 **********************
 DD1Dir will call FoFMem   1 times, MxPair=       156
 NAB=    78 NAA=     0 NBB=     0.
 DE(Corr)= -0.73781113     E(CORR)=     -1026.7876363     Delta=-2.89D-06
 NORM(A)=   0.11195277D+01
 Iteration Nr.  11
 **********************
 DD1Dir will call FoFMem   1 times, MxPair=       156
 NAB=    78 NAA=     0 NBB=     0.
 DE(Corr)= -0.73780970     E(CORR)=     -1026.7876349     Delta= 1.43D-06
 NORM(A)=   0.11195270D+01
 Iteration Nr.  12
 **********************
 DD1Dir will call FoFMem   1 times, MxPair=       156
 NAB=    78 NAA=     0 NBB=     0.
 DE(Corr)= -0.73780806     E(CORR)=     -1026.7876332     Delta= 1.64D-06
 NORM(A)=   0.11195246D+01
 Iteration Nr.  13
 **********************
 DD1Dir will call FoFMem   1 times, MxPair=       156
 NAB=    78 NAA=     0 NBB=     0.
 DE(Corr)= -0.73780752     E(CORR)=     -1026.7876327     Delta= 5.39D-07
 NORM(A)=   0.11195226D+01
 Iteration Nr.  14
 **********************
 DD1Dir will call FoFMem   1 times, MxPair=       156
 NAB=    78 NAA=     0 NBB=     0.
 DE(Corr)= -0.73780740     E(CORR)=     -1026.7876326     Delta= 1.19D-07
 NORM(A)=   0.11195213D+01
 Iteration Nr.  15
 **********************
 DD1Dir will call FoFMem   1 times, MxPair=       156
 NAB=    78 NAA=     0 NBB=     0.
 DE(Corr)= -0.73780717     E(CORR)=     -1026.7876324     Delta= 2.29D-07
 NORM(A)=   0.11195205D+01
 Iteration Nr.  16
 **********************
 DD1Dir will call FoFMem   1 times, MxPair=       156
 NAB=    78 NAA=     0 NBB=     0.
 DE(Corr)= -0.73780714     E(CORR)=     -1026.7876323     Delta= 3.63D-08
 NORM(A)=   0.11195199D+01
 Wavefunction amplitudes converged. E(Corr)=     -1026.7876323    
 Largest amplitude= 1.53D-02
 Discarding MO integrals.

 **********************************************************************

            Population analysis using the SCF Density.

 **********************************************************************

 Orbital symmetries:
       Occupied  (B2) (A1) (A1) (B2) (A1) (B2) (A1) (B1) (A2) (A1)
                 (B2) (A1) (A1) (B2) (A1) (A1) (B2) (B2) (B1) (A1)
                 (A2) (B1) (A1) (B2)
       Virtual   (A1) (B1) (B2) (A1) (A1) (B1) (B2) (A1) (A1) (B2)
                 (B1) (A1) (A2) (B2) (B1) (A1) (B2) (A2) (A1) (A1)
                 (B1) (A1) (B2) (A1) (B2) (B1) (A1) (A2) (B2) (B1)
                 (A1) (B2) (B1) (A1) (A2) (B1) (A1) (A1) (B1) (B2)
                 (A1) (A2) (B2) (B1) (B2) (A1) (A2) (B2) (A1) (A1)
                 (B1) (B2) (A1) (B2) (A1) (B1) (B2) (A2) (A1) (A2)
                 (B2) (B1) (A1) (A2) (B2) (B1) (A1) (B2) (A1) (B1)
                 (A1) (B1) (A2) (A1) (B2) (A1) (A2) (B2) (A2) (B2)
                 (A1) (B1) (B2) (A1) (A2) (B1) (A1) (B2) (B1) (B2)
                 (A1) (B1) (A1) (B1) (A1) (A2) (B1) (B2) (A1) (B2)
                 (B2) (A2) (B2) (A1) (A1) (B2) (A1) (B1) (A1) (A2)
                 (B2) (A2) (B2) (B1) (A1) (A1) (B2) (A2) (B2) (A1)
                 (B1) (A2) (A1) (B1) (B2) (A2) (A1) (A1) (B1) (A1)
                 (B2) (B1) (A1) (B2) (B1) (B2) (A2) (A1) (B1) (A2)
                 (B2) (A1) (B1) (A1) (B2) (A2) (A1) (B2) (B2) (A1)
                 (B1) (B2) (A1) (B2) (A1) (B1) (A2) (B2) (A1) (B1)
                 (A1) (B2) (A2) (A1) (B1) (A1) (B2) (A1)
 The electronic state is 1-A1.
 Alpha  occ. eigenvalues -- -104.42780-104.42780 -25.73402 -10.15291 -10.15291
 Alpha  occ. eigenvalues --   -7.61906  -7.61906  -7.61895  -7.61895  -7.61887
 Alpha  occ. eigenvalues --   -7.61887  -2.04977  -0.98319  -0.66728  -0.66575
 Alpha  occ. eigenvalues --   -0.11271  -0.10924  -0.09227  -0.09176  -0.08968
 Alpha  occ. eigenvalues --   -0.07685  -0.07518  -0.06117  -0.05715
 Alpha virt. eigenvalues --    0.15667   0.16265   0.16420   0.17758   0.27239
 Alpha virt. eigenvalues --    0.28384   0.29610   0.30215   0.34010   0.34091
 Alpha virt. eigenvalues --    0.35104   0.36241   0.36744   0.37571   0.38232
 Alpha virt. eigenvalues --    0.38619   0.41867   0.42023   0.44218   0.45062
 Alpha virt. eigenvalues --    0.47453   0.50893   0.52636   0.57503   0.59424
 Alpha virt. eigenvalues --    0.59717   0.61047   0.61101   0.61741   0.62307
 Alpha virt. eigenvalues --    0.62836   0.66469   0.67754   0.69270   0.70645
 Alpha virt. eigenvalues --    0.70929   0.73299   0.75302   0.75379   0.75484
 Alpha virt. eigenvalues --    0.77147   0.78646   0.78753   0.79534   0.79827
 Alpha virt. eigenvalues --    0.82440   0.84798   0.86461   0.87397   0.88403
 Alpha virt. eigenvalues --    0.89443   0.94044   0.96922   1.05432   1.14208
 Alpha virt. eigenvalues --    1.15970   1.16736   1.16921   1.19371   1.22145
 Alpha virt. eigenvalues --    1.23987   1.24403   1.25608   1.25964   1.27303
 Alpha virt. eigenvalues --    1.27461   1.28739   1.29205   1.30720   1.33249
 Alpha virt. eigenvalues --    1.33385   1.36316   1.39022   1.40857   1.45006
 Alpha virt. eigenvalues --    1.45484   1.46676   1.47112   1.49200   1.51468
 Alpha virt. eigenvalues --    1.52667   1.56666   1.57136   1.59671   1.60176
 Alpha virt. eigenvalues --    1.60194   1.62768   1.63052   1.66334   1.67221
 Alpha virt. eigenvalues --    1.68163   1.69126   1.75311   1.81291   1.85558
 Alpha virt. eigenvalues --    1.89377   1.89444   1.89566   1.93766   1.99187
 Alpha virt. eigenvalues --    2.08080   2.09032   2.10860   2.16606   2.27936
 Alpha virt. eigenvalues --    2.45414   2.70480   2.94371   2.95043   2.99356
 Alpha virt. eigenvalues --    3.00007   3.02679   3.03355   3.04407   3.08547
 Alpha virt. eigenvalues --    3.10867   3.14992   3.25421   3.27794   3.33320
 Alpha virt. eigenvalues --    3.38411   3.39701   3.41084   3.42842   3.43731
 Alpha virt. eigenvalues --    3.45307   3.45479   3.46289   3.46932   3.47117
 Alpha virt. eigenvalues --    3.47803   3.47820   3.48749   3.54746   3.54948
 Alpha virt. eigenvalues --    3.55176   3.56999   3.57781   3.59298   3.61473
 Alpha virt. eigenvalues --    3.63347   3.68799   3.70658   3.72416   3.73777
 Alpha virt. eigenvalues --    3.74319   3.89007   3.89101   3.98427   4.60214
 Alpha virt. eigenvalues --    5.87790   5.96412   6.17806   6.97919   7.53118
 Alpha virt. eigenvalues --    9.37681   9.40309   9.40326   9.41548   9.46073
 Alpha virt. eigenvalues --    9.46584   9.51306   9.89108   9.94432   9.97707
 Alpha virt. eigenvalues --   10.00504  10.03415  12.32258
          Condensed to atoms (all electrons):
               1          2          3          4
     1  F   10.079642  -0.067828   0.012163  -0.067828
     2  Cl  -0.067828  17.797167   0.124263  -0.019247
     3  Li   0.012163   0.124263   2.114453   0.124263
     4  Cl  -0.067828  -0.019247   0.124263  17.797167
 Mulliken charges:
               1
     1  F   -0.956149
     2  Cl  -0.834355
     3  Li   0.624858
     4  Cl  -0.834355
 Sum of Mulliken charges =  -2.00000
 Mulliken charges with hydrogens summed into heavy atoms:
               1
     1  F   -0.956149
     2  Cl  -0.834355
     3  Li   0.624858
     4  Cl  -0.834355
 Electronic spatial extent (au):  <R**2>=            816.4583
 Charge=             -2.0000 electrons
 Dipole moment (field-independent basis, Debye):
    X=              0.0000    Y=              0.0000    Z=             -3.9888  Tot=              3.9888
 Quadrupole moment (field-independent basis, Debye-Ang):
   XX=            -40.9078   YY=            -82.8680   ZZ=            -58.2072
   XY=             -0.0000   XZ=             -0.0000   YZ=             -0.0000
 Traceless Quadrupole moment (field-independent basis, Debye-Ang):
   XX=             19.7532   YY=            -22.2070   ZZ=              2.4538
   XY=             -0.0000   XZ=             -0.0000   YZ=             -0.0000
 Octapole moment (field-independent basis, Debye-Ang**2):
  XXX=              0.0000  YYY=              0.0000  ZZZ=            -12.8919  XYY=              0.0000
  XXY=             -0.0000  XXZ=              4.0429  XZZ=              0.0000  YZZ=              0.0000
  YYZ=             30.5083  XYZ=              0.0000
 Hexadecapole moment (field-independent basis, Debye-Ang**3):
 XXXX=            -61.5433 YYYY=          -1176.3545 ZZZZ=           -288.7841 XXXY=             -0.0000
 XXXZ=             -0.0000 YYYX=             -0.0000 YYYZ=              0.0000 ZZZX=             -0.0000
 ZZZY=              0.0000 XXYY=           -174.9188 XXZZ=            -50.4962 YYZZ=           -218.7015
 XXYZ=             -0.0000 YYXZ=             -0.0000 ZZXY=             -0.0000
 N-N= 1.202089258104D+02 E-N=-2.707210075767D+03  KE= 1.026174963830D+03
 Symmetry A1   KE= 5.095876871263D+02
 Symmetry A2   KE= 4.533068237087D+01
 Symmetry B1   KE= 5.094640947466D+01
 Symmetry B2   KE= 4.203101848585D+02
 1\1\GINC-HELIOS\SP\RCCSD-FC\Aug-CC-pVTZ\Cl2F1Li1(2-)\POHL\30-May-2025\
 0\\# CCSD/aug-cc-pVTZ SP\\Single-point energy of X- + Y- at fixed dist
 ance R\\-2,1\F,0,0.,0.,2.2\Cl,0,-2.14,0.,0.\Li,0,0.,0.,0.\Cl,0,2.14,0.
 ,0.\\Version=EM64L-G16RevB.01\State=1-A1\HF=-1026.0498252\MP2=-1026.76
 35432\MP3=-1026.787006\MP4D=-1026.8010301\MP4DQ=-1026.7855207\MP4SDQ=-
 1026.7912686\CCSD=-1026.7876323\RMSD=8.787e-09\PG=C02V [C2(Li1F1),SGV(
 Cl2)]\\@


 ADAM SMITH SAID, "THE REAL PRICE OF ANYTHING IS THE TOIL AND TROUBLE
 OF ACQUIRING IT."  BUT IN ALL UNDERTAKINGS WITH NATURE WE SHOULD FIRST
 READ CAREFULLY THE SMALL PRINT IN THE CONTRACT. THIS MIGHT DISCLOSE
 THAT THE REAL PRICE IS TO BE PAID BY THOSE WHO INHERIT THE DEPLETION
 AND DESPOILATION THAT FOLLOWS.
                               -- E. R. HARRISON IN "COSMOLOGY" (1980)
 Job cpu time:       0 days  0 hours  9 minutes 52.7 seconds.
 Elapsed time:       0 days  0 hours  0 minutes 59.6 seconds.
 File lengths (MBytes):  RWF=   1162 Int=      0 D2E=      0 Chk=      4 Scr=      1
 Normal termination of Gaussian 16 at Fri May 30 10:22:46 2025.
