 Entering Gaussian System, Link 0=g16
 Initial command:
 /opt/g16/l1.exe "/home/pohl/scratches/g16/Gau-2120115.inp" -scrdir="/home/pohl/scratches/g16/"
 Entering Link 1 = /opt/g16/l1.exe PID=   2120117.
  
 Copyright (c) 1988-2017, Gaussian, Inc.  All Rights Reserved.
  
 This is part of the Gaussian(R) 16 program.  It is based on
 the Gaussian(R) 09 system (copyright 2009, Gaussian, Inc.),
 the Gaussian(R) 03 system (copyright 2003, Gaussian, Inc.),
 the Gaussian(R) 98 system (copyright 1998, Gaussian, Inc.),
 the Gaussian(R) 94 system (copyright 1995, Gaussian, Inc.),
 the Gaussian 92(TM) system (copyright 1992, Gaussian, Inc.),
 the Gaussian 90(TM) system (copyright 1990, Gaussian, Inc.),
 the Gaussian 88(TM) system (copyright 1988, Gaussian, Inc.),
 the Gaussian 86(TM) system (copyright 1986, Carnegie Mellon
 University), and the Gaussian 82(TM) system (copyright 1983,
 Carnegie Mellon University). Gaussian is a federally registered
 trademark of Gaussian, Inc.
  
 This software contains proprietary and confidential information,
 including trade secrets, belonging to Gaussian, Inc.
  
 This software is provided under written license and may be
 used, copied, transmitted, or stored only in accord with that
 written license.
  
 The following legend is applicable only to US Government
 contracts under FAR:
  
                    RESTRICTED RIGHTS LEGEND
  
 Use, reproduction and disclosure by the US Government is
 subject to restrictions as set forth in subparagraphs (a)
 and (c) of the Commercial Computer Software - Restricted
 Rights clause in FAR 52.227-19.
  
 Gaussian, Inc.
 340 Quinnipiac St., Bldg. 40, Wallingford CT 06492
  
  
 ---------------------------------------------------------------
 Warning -- This program may not be used in any manner that
 competes with the business of Gaussian, Inc. or will provide
 assistance to any competitor of Gaussian, Inc.  The licensee
 of this program is prohibited from giving any competitor of
 Gaussian, Inc. access to this program.  By using this program,
 the user acknowledges that Gaussian, Inc. is engaged in the
 business of creating and licensing software in the field of
 computational chemistry and represents and warrants to the
 licensee that it is not a competitor of Gaussian, Inc. and that
 it will not use this program in any manner prohibited above.
 ---------------------------------------------------------------
  

 Cite this work as:
 Gaussian 16, Revision B.01,
 M. J. Frisch, G. W. Trucks, H. B. Schlegel, G. E. Scuseria, 
 M. A. Robb, J. R. Cheeseman, G. Scalmani, V. Barone, 
 G. A. Petersson, H. Nakatsuji, X. Li, M. Caricato, A. V. Marenich, 
 J. Bloino, B. G. Janesko, R. Gomperts, B. Mennucci, H. P. Hratchian, 
 J. V. Ortiz, A. F. Izmaylov, J. L. Sonnenberg, D. Williams-Young, 
 F. Ding, F. Lipparini, F. Egidi, J. Goings, B. Peng, A. Petrone, 
 T. Henderson, D. Ranasinghe, V. G. Zakrzewski, J. Gao, N. Rega, 
 G. Zheng, W. Liang, M. Hada, M. Ehara, K. Toyota, R. Fukuda, 
 J. Hasegawa, M. Ishida, T. Nakajima, Y. Honda, O. Kitao, H. Nakai, 
 T. Vreven, K. Throssell, J. A. Montgomery, Jr., J. E. Peralta, 
 F. Ogliaro, M. J. Bearpark, J. J. Heyd, E. N. Brothers, K. N. Kudin, 
 V. N. Staroverov, T. A. Keith, R. Kobayashi, J. Normand, 
 K. Raghavachari, A. P. Rendell, J. C. Burant, S. S. Iyengar, 
 J. Tomasi, M. Cossi, J. M. Millam, M. Klene, C. Adamo, R. Cammi, 
 J. W. Ochterski, R. L. Martin, K. Morokuma, O. Farkas, 
 J. B. Foresman, and D. J. Fox, Gaussian, Inc., Wallingford CT, 2016.
 
 ******************************************
 Gaussian 16:  EM64L-G16RevB.01 20-Dec-2017
                30-May-2025 
 ******************************************
 %mem=30GB
 %nprocshared=10
 Will use up to   10 processors via shared memory.
 ---------------------
 # CCSD/aug-cc-pVTZ SP
 ---------------------
 1/38=1,172=1/1;
 2/12=2,17=6,18=5,40=1/2;
 3/5=16,6=1,7=10,11=9,25=1,30=1/1,2,3;
 4//1;
 5/5=2,38=5/2;
 8/6=4,9=120000,10=1/1,4;
 9/5=7/13;
 6/7=2,8=2,9=2,10=2/1;
 99/5=1,9=1/99;
 --------------------------------------------------
 Single-point energy of X- + Y- at fixed distance R
 --------------------------------------------------
 Symbolic Z-matrix:
 Charge = -2 Multiplicity = 1
 F                     0.        0.        5. 
 Cl                   -2.14      0.        0. 
 Li                    0.        0.        0. 
 Cl                    2.14      0.        0. 
 
                          Input orientation:                          
 ---------------------------------------------------------------------
 Center     Atomic      Atomic             Coordinates (Angstroms)
 Number     Number       Type             X           Y           Z
 ---------------------------------------------------------------------
      1          9           0        0.000000    0.000000    5.000000
      2         17           0       -2.140000    0.000000    0.000000
      3          3           0        0.000000    0.000000    0.000000
      4         17           0        2.140000    0.000000    0.000000
 ---------------------------------------------------------------------
                    Distance matrix (angstroms):
                    1          2          3          4
     1  F    0.000000
     2  Cl   5.438713   0.000000
     3  Li   5.000000   2.140000   0.000000
     4  Cl   5.438713   4.280000   2.140000   0.000000
 Stoichiometry    Cl2FLi(2-)
 Framework group  C2V[C2(LiF),SGV(Cl2)]
 Deg. of freedom     3
 Full point group                 C2V     NOp   4
 Largest Abelian subgroup         C2V     NOp   4
 Largest concise Abelian subgroup C2      NOp   2
                         Standard orientation:                         
 ---------------------------------------------------------------------
 Center     Atomic      Atomic             Coordinates (Angstroms)
 Number     Number       Type             X           Y           Z
 ---------------------------------------------------------------------
      1          9           0        0.000000   -0.000000    4.021739
      2         17           0        0.000000    2.140000   -0.978261
      3          3           0        0.000000    0.000000   -0.978261
      4         17           0       -0.000000   -2.140000   -0.978261
 ---------------------------------------------------------------------
 Rotational constants (GHZ):           1.5778956           1.3267377           0.7207291
 Standard basis: Aug-CC-pVTZ (5D, 7F)
 There are    88 symmetry adapted cartesian basis functions of A1  symmetry.
 There are    29 symmetry adapted cartesian basis functions of A2  symmetry.
 There are    45 symmetry adapted cartesian basis functions of B1  symmetry.
 There are    66 symmetry adapted cartesian basis functions of B2  symmetry.
 There are    71 symmetry adapted basis functions of A1  symmetry.
 There are    27 symmetry adapted basis functions of A2  symmetry.
 There are    39 symmetry adapted basis functions of B1  symmetry.
 There are    55 symmetry adapted basis functions of B2  symmetry.
   192 basis functions,   374 primitive gaussians,   228 cartesian basis functions
    24 alpha electrons       24 beta electrons
       nuclear repulsion energy        93.5851092670 Hartrees.
 NAtoms=    4 NActive=    4 NUniq=    3 SFac= 1.78D+00 NAtFMM=   60 NAOKFM=F Big=F
 Integral buffers will be    131072 words long.
 Raffenetti 1 integral format.
 Two-electron integral symmetry is turned on.
 One-electron integrals computed using PRISM.
 NBasis=   192 RedAO= T EigKep=  1.11D-04  NBF=    71    27    39    55
 NBsUse=   192 1.00D-06 EigRej= -1.00D+00 NBFU=    71    27    39    55
 ExpMin= 7.59D-03 ExpMax= 4.56D+05 ExpMxC= 1.44D+03 IAcc=3 IRadAn=         5 AccDes= 0.00D+00
 Harris functional with IExCor=  205 and IRadAn=       5 diagonalized for initial guess.
 HarFok:  IExCor=  205 AccDes= 0.00D+00 IRadAn=         5 IDoV= 1 UseB2=F ITyADJ=14
 ICtDFT=  3500011 ScaDFX=  1.000000  1.000000  1.000000  1.000000
 FoFCou: FMM=F IPFlag=           0 FMFlag=      100000 FMFlg1=           0
         NFxFlg=           0 DoJE=T BraDBF=F KetDBF=T FulRan=T
         wScrn=  0.000000 ICntrl=       500 IOpCl=  0 I1Cent=   200000004 NGrid=           0
         NMat0=    1 NMatS0=      1 NMatT0=    0 NMatD0=    1 NMtDS0=    0 NMtDT0=    0
 Petite list used in FoFCou.
 Initial guess orbital symmetries:
       Occupied  (A1) (B2) (A1) (A1) (B2) (B2) (A1) (A1) (B1) (B2)
                 (A2) (A1) (A1) (B2) (A1) (A1) (B2) (B1) (B2) (A1)
                 (A1) (B1) (B2) (A2)
       Virtual   (A1) (A1) (B1) (B2) (A1) (A1) (B1) (A1) (B1) (B2)
                 (A1) (B2) (A2) (A1) (B1) (B2) (A1) (A1) (B1) (B2)
                 (A1) (A2) (B1) (B2) (A1) (B2) (A2) (B2) (A1) (B1)
                 (A1) (B2) (A1) (A2) (B2) (A1) (B1) (B1) (B2) (A1)
                 (B1) (A1) (A1) (A2) (B2) (B1) (A1) (B1) (A1) (A1)
                 (A2) (B2) (B2) (B2) (A2) (B2) (A1) (A1) (B1) (A2)
                 (B2) (A1) (B1) (A2) (B2) (B1) (A1) (B2) (A1) (A1)
                 (A2) (B1) (B2) (A1) (B1) (A1) (B1) (A1) (B2) (A2)
                 (B2) (A2) (B2) (A1) (B1) (B2) (A1) (A2) (B2) (B1)
                 (A1) (B1) (A1) (A1) (B1) (B2) (A1) (B1) (A1) (A2)
                 (B2) (B2) (A2) (B2) (A1) (A1) (B2) (B1) (A1) (A2)
                 (B2) (A2) (B2) (B1) (A1) (A1) (B2) (B2) (A2) (A2)
                 (A1) (B1) (B2) (A1) (A1) (B1) (B2) (B1) (A2) (A1)
                 (B2) (B1) (A1) (A1) (A1) (A2) (B2) (B1) (A1) (B2)
                 (B1) (A1) (B1) (A1) (A2) (B2) (A2) (B2) (B2) (A1)
                 (B1) (B2) (A1) (B2) (A1) (B1) (B2) (A2) (A1) (B1)
                 (B2) (A1) (A2) (A1) (B1) (B2) (A1) (A1)
 The electronic state of the initial guess is 1-A1.
 Keep R1 ints in memory in symmetry-blocked form, NReq=215097955.
 Requested convergence on RMS density matrix=1.00D-08 within 128 cycles.
 Requested convergence on MAX density matrix=1.00D-06.
 Requested convergence on             energy=1.00D-06.
 No special actions if energy rises.
 SCF Done:  E(RHF) =  -1026.07492137     A.U. after   11 cycles
            NFock= 11  Conv=0.25D-08     -V/T= 1.9999
 ExpMin= 7.59D-03 ExpMax= 4.56D+05 ExpMxC= 1.44D+03 IAcc=3 IRadAn=         5 AccDes= 0.00D+00
 HarFok:  IExCor=  205 AccDes= 0.00D+00 IRadAn=         5 IDoV=-2 UseB2=F ITyADJ=14
 ICtDFT= 12500011 ScaDFX=  1.000000  1.000000  1.000000  1.000000
 Range of M.O.s used for correlation:    13   192
 NBasis=   192 NAE=    24 NBE=    24 NFC=    12 NFV=     0
 NROrb=    180 NOA=    12 NOB=    12 NVA=   168 NVB=   168

 **** Warning!!: The largest alpha MO coefficient is  0.35414409D+02

 Semi-Direct transformation.
 ModeAB=           4 MOrb=            12 LenV=    4025522431
 LASXX=      8444399 LTotXX=     8444399 LenRXX=    17045430
 LTotAB=     8601031 MaxLAS=    33441120 LenRXY=           0
 NonZer=    25489829 LenScr=    39014400 LnRSAI=    33441120
 LnScr1=    50924544 LExtra=           0 Total=    140425494
 MaxDsk=          -1 SrtSym=           T ITran=            4
 JobTyp=0 Pass  1:  I=   1 to  12.
 (rs|ai) integrals will be sorted in core.
 Spin components of T(2) and E(2):
     alpha-alpha T2 =       0.3054402582D-01 E2=     -0.9097249132D-01
     alpha-beta  T2 =       0.1618129858D+00 E2=     -0.5281894266D+00
     beta-beta   T2 =       0.3054402582D-01 E2=     -0.9097249132D-01
 ANorm=    0.1105848560D+01
 E2 =    -0.7101344092D+00 EUMP2 =    -0.10267850557801D+04
 Keep R2 and R3 ints in memory in symmetry-blocked form, NReq=215104941.
 CIDS: In Core Option IDoMem=           1.
 Iterations=  50 Convergence= 0.100D-06
 Produce multiple copies of IABC intergrals
 Iteration Nr.   1
 **********************
 DD1Dir will call FoFMem   1 times, MxPair=       156
 NAB=    78 NAA=     0 NBB=     0.
 MP4(R+Q)=  0.14900613D-01
 E3=       -0.22518682D-01        EUMP3=      -0.10268075745D+04
 E4(DQ)=    0.42300377D-03        UMP4(DQ)=   -0.10268071515D+04
 E4(SDQ)=  -0.54617653D-02        UMP4(SDQ)=  -0.10268130362D+04
 DE(Corr)= -0.71721747     E(Corr)=     -1026.7921388    
 NORM(A)=   0.11109257D+01
 Iteration Nr.   2
 **********************
 DD1Dir will call FoFMem   1 times, MxPair=       156
 NAB=    78 NAA=     0 NBB=     0.
 DE(Corr)= -0.73387688     E(CORR)=     -1026.8087983     Delta=-1.67D-02
 NORM(A)=   0.11158587D+01
 Iteration Nr.   3
 **********************
 DD1Dir will call FoFMem   1 times, MxPair=       156
 NAB=    78 NAA=     0 NBB=     0.
 DE(Corr)= -0.73228137     E(CORR)=     -1026.8072027     Delta= 1.60D-03
 NORM(A)=   0.11175961D+01
 Iteration Nr.   4
 **********************
 DD1Dir will call FoFMem   1 times, MxPair=       156
 NAB=    78 NAA=     0 NBB=     0.
 DE(Corr)= -0.73384271     E(CORR)=     -1026.8087641     Delta=-1.56D-03
 NORM(A)=   0.11181224D+01
 Iteration Nr.   5
 **********************
 DD1Dir will call FoFMem   1 times, MxPair=       156
 NAB=    78 NAA=     0 NBB=     0.
 DE(Corr)= -0.73398417     E(CORR)=     -1026.8089055     Delta=-1.41D-04
 NORM(A)=   0.11183392D+01
 Iteration Nr.   6
 **********************
 DD1Dir will call FoFMem   1 times, MxPair=       156
 NAB=    78 NAA=     0 NBB=     0.
 DE(Corr)= -0.73400001     E(CORR)=     -1026.8089214     Delta=-1.58D-05
 NORM(A)=   0.11184450D+01
 Iteration Nr.   7
 **********************
 DD1Dir will call FoFMem   1 times, MxPair=       156
 NAB=    78 NAA=     0 NBB=     0.
 DE(Corr)= -0.73400038     E(CORR)=     -1026.8089218     Delta=-3.75D-07
 NORM(A)=   0.11184674D+01
 Iteration Nr.   8
 **********************
 DD1Dir will call FoFMem   1 times, MxPair=       156
 NAB=    78 NAA=     0 NBB=     0.
 DE(Corr)= -0.73400954     E(CORR)=     -1026.8089309     Delta=-9.16D-06
 NORM(A)=   0.11184769D+01
 Iteration Nr.   9
 **********************
 DD1Dir will call FoFMem   1 times, MxPair=       156
 NAB=    78 NAA=     0 NBB=     0.
 DE(Corr)= -0.73400096     E(CORR)=     -1026.8089223     Delta= 8.57D-06
 NORM(A)=   0.11184862D+01
 Iteration Nr.  10
 **********************
 DD1Dir will call FoFMem   1 times, MxPair=       156
 NAB=    78 NAA=     0 NBB=     0.
 DE(Corr)= -0.73400216     E(CORR)=     -1026.8089235     Delta=-1.20D-06
 NORM(A)=   0.11184854D+01
 Iteration Nr.  11
 **********************
 DD1Dir will call FoFMem   1 times, MxPair=       156
 NAB=    78 NAA=     0 NBB=     0.
 DE(Corr)= -0.73400154     E(CORR)=     -1026.8089229     Delta= 6.23D-07
 NORM(A)=   0.11184848D+01
 Iteration Nr.  12
 **********************
 DD1Dir will call FoFMem   1 times, MxPair=       156
 NAB=    78 NAA=     0 NBB=     0.
 DE(Corr)= -0.73400043     E(CORR)=     -1026.8089218     Delta= 1.11D-06
 NORM(A)=   0.11184834D+01
 Iteration Nr.  13
 **********************
 DD1Dir will call FoFMem   1 times, MxPair=       156
 NAB=    78 NAA=     0 NBB=     0.
 DE(Corr)= -0.73399996     E(CORR)=     -1026.8089213     Delta= 4.71D-07
 NORM(A)=   0.11184823D+01
 Iteration Nr.  14
 **********************
 DD1Dir will call FoFMem   1 times, MxPair=       156
 NAB=    78 NAA=     0 NBB=     0.
 DE(Corr)= -0.73399998     E(CORR)=     -1026.8089214     Delta=-2.48D-08
 NORM(A)=   0.11184814D+01
 Iteration Nr.  15
 **********************
 DD1Dir will call FoFMem   1 times, MxPair=       156
 NAB=    78 NAA=     0 NBB=     0.
 DE(Corr)= -0.73399988     E(CORR)=     -1026.8089213     Delta= 9.96D-08
 NORM(A)=   0.11184810D+01
 Wavefunction amplitudes converged. E(Corr)=     -1026.8089213    
 Largest amplitude= 3.56D-02
 Discarding MO integrals.

 **********************************************************************

            Population analysis using the SCF Density.

 **********************************************************************

 Orbital symmetries:
       Occupied  (B2) (A1) (A1) (B2) (A1) (B2) (A1) (B1) (A2) (A1)
                 (B2) (A1) (A1) (B2) (A1) (B2) (A1) (B1) (A1) (A2)
                 (B2) (B2) (B1) (A1)
       Virtual   (A1) (B1) (B2) (A1) (A1) (B1) (B2) (A1) (A1) (B2)
                 (B1) (A2) (A1) (B1) (B2) (A1) (A2) (B1) (B2) (A1)
                 (A1) (A1) (B2) (B1) (A1) (B2) (A2) (A1) (B2) (B1)
                 (A1) (B2) (A1) (B1) (B1) (A1) (A2) (B2) (A1) (B1)
                 (A1) (B2) (B1) (A1) (A2) (B2) (A1) (A1) (A2) (B2)
                 (B1) (A1) (B2) (B2) (A1) (B1) (A1) (A2) (B2) (A2)
                 (B2) (B1) (A1) (A2) (B2) (B2) (B1) (B1) (A1) (A1)
                 (A1) (B1) (A1) (A2) (A1) (B2) (B1) (A1) (A2) (B2)
                 (A2) (B2) (A1) (B2) (B2) (A2) (B1) (A1) (B2) (B1)
                 (A1) (B1) (A1) (B1) (B2) (A1) (A1) (B1) (A1) (A2)
                 (B2) (B2) (A2) (B2) (A1) (A1) (B2) (B1) (A1) (A2)
                 (B2) (A2) (B2) (B1) (A1) (A1) (B2) (A2) (B2) (A1)
                 (B1) (A1) (A2) (A1) (B1) (A2) (B2) (B2) (A1) (B1)
                 (A1) (A1) (B1) (B2) (A2) (A1) (B1) (B2) (A1) (B1)
                 (A1) (B2) (B1) (A1) (A2) (B2) (A2) (B2) (B2) (A1)
                 (B1) (B2) (A1) (B2) (A1) (B1) (B2) (A2) (A1) (B1)
                 (B2) (A1) (A2) (A1) (B1) (B2) (A1) (A1)
 The electronic state is 1-A1.
 Alpha  occ. eigenvalues -- -104.49273-104.49273 -25.74579 -10.21790 -10.21790
 Alpha  occ. eigenvalues --   -7.68411  -7.68410  -7.68396  -7.68396  -7.68393
 Alpha  occ. eigenvalues --   -7.68393  -2.14724  -0.98798  -0.73335  -0.73190
 Alpha  occ. eigenvalues --   -0.16608  -0.16282  -0.14574  -0.14431  -0.14064
 Alpha  occ. eigenvalues --   -0.13938  -0.09292  -0.09289  -0.09285
 Alpha virt. eigenvalues --    0.14423   0.15681   0.15884   0.19027   0.25085
 Alpha virt. eigenvalues --    0.25788   0.27247   0.28430   0.30942   0.31641
 Alpha virt. eigenvalues --    0.33315   0.33737   0.35494   0.35516   0.35892
 Alpha virt. eigenvalues --    0.36942   0.39336   0.41293   0.41386   0.41447
 Alpha virt. eigenvalues --    0.41999   0.44823   0.48609   0.52938   0.53012
 Alpha virt. eigenvalues --    0.53515   0.55744   0.56658   0.56861   0.56966
 Alpha virt. eigenvalues --    0.57542   0.58867   0.59485   0.59593   0.62119
 Alpha virt. eigenvalues --    0.62171   0.64432   0.66061   0.69053   0.69912
 Alpha virt. eigenvalues --    0.70745   0.70995   0.71849   0.72124   0.73643
 Alpha virt. eigenvalues --    0.74343   0.76229   0.79457   0.79639   0.80366
 Alpha virt. eigenvalues --    0.83236   0.84424   0.87840   0.99620   1.08837
 Alpha virt. eigenvalues --    1.08890   1.09332   1.10590   1.11309   1.14984
 Alpha virt. eigenvalues --    1.15115   1.17700   1.18108   1.19661   1.19957
 Alpha virt. eigenvalues --    1.20740   1.21172   1.21369   1.22044   1.22731
 Alpha virt. eigenvalues --    1.24713   1.28138   1.28499   1.31664   1.32060
 Alpha virt. eigenvalues --    1.32999   1.33630   1.38769   1.40211   1.41415
 Alpha virt. eigenvalues --    1.41679   1.42325   1.42721   1.45732   1.48596
 Alpha virt. eigenvalues --    1.48600   1.52771   1.52938   1.58567   1.59635
 Alpha virt. eigenvalues --    1.59721   1.61511   1.62694   1.62741   1.63326
 Alpha virt. eigenvalues --    1.65204   1.66461   1.76170   1.77316   1.81867
 Alpha virt. eigenvalues --    1.81914   1.96296   2.02486   2.02870   2.20166
 Alpha virt. eigenvalues --    2.28136   2.37689   2.87846   2.88443   2.93313
 Alpha virt. eigenvalues --    2.93424   2.96439   2.96583   2.98169   2.98643
 Alpha virt. eigenvalues --    3.04656   3.08606   3.19555   3.19649   3.33326
 Alpha virt. eigenvalues --    3.34488   3.34633   3.37190   3.37475   3.37735
 Alpha virt. eigenvalues --    3.38187   3.38190   3.38787   3.39040   3.40560
 Alpha virt. eigenvalues --    3.40961   3.41534   3.41952   3.41953   3.41998
 Alpha virt. eigenvalues --    3.42069   3.42076   3.42231   3.43416   3.44418
 Alpha virt. eigenvalues --    3.44838   3.45975   3.52566   3.52950   3.54566
 Alpha virt. eigenvalues --    3.54757   3.67830   3.68016   3.85756   4.44418
 Alpha virt. eigenvalues --    5.76979   5.77394   5.79258   6.88655   7.43768
 Alpha virt. eigenvalues --    9.35587   9.35587   9.35609   9.35619   9.35636
 Alpha virt. eigenvalues --    9.35705   9.35772   9.83349   9.83427   9.83704
 Alpha virt. eigenvalues --    9.84258   9.85216  11.33500
          Condensed to atoms (all electrons):
               1          2          3          4
     1  F   10.007650   0.000235  -0.004636   0.000235
     2  Cl   0.000235  17.619125   0.167655  -0.017379
     3  Li  -0.004636   0.167655   2.126566   0.167655
     4  Cl   0.000235  -0.017379   0.167655  17.619125
 Mulliken charges:
               1
     1  F   -1.003485
     2  Cl  -0.769637
     3  Li   0.542759
     4  Cl  -0.769637
 Sum of Mulliken charges =  -2.00000
 Mulliken charges with hydrogens summed into heavy atoms:
               1
     1  F   -1.003485
     2  Cl  -0.769637
     3  Li   0.542759
     4  Cl  -0.769637
 Electronic spatial extent (au):  <R**2>=           1381.5736
 Charge=             -2.0000 electrons
 Dipole moment (field-independent basis, Debye):
    X=              0.0000    Y=              0.0000    Z=            -13.7557  Tot=             13.7557
 Quadrupole moment (field-independent basis, Debye-Ang):
   XX=            -40.2866   YY=            -75.4059   ZZ=           -125.4061
   XY=             -0.0000   XZ=             -0.0000   YZ=             -0.0000
 Traceless Quadrupole moment (field-independent basis, Debye-Ang):
   XX=             40.0796   YY=              4.9603   ZZ=            -45.0399
   XY=             -0.0000   XZ=             -0.0000   YZ=             -0.0000
 Octapole moment (field-independent basis, Debye-Ang**2):
  XXX=              0.0000  YYY=              0.0000  ZZZ=           -299.1067  XYY=              0.0000
  XXY=              0.0000  XXZ=              4.3114  XZZ=              0.0000  YZZ=              0.0000
  YYZ=             42.5051  XYZ=              0.0000
 Hexadecapole moment (field-independent basis, Debye-Ang**3):
 XXXX=            -57.1547 YYYY=          -1064.5616 ZZZZ=          -2255.1873 XXXY=             -0.0000
 XXXZ=             -0.0000 YYYX=             -0.0000 YYYZ=              0.0000 ZZZX=             -0.0000
 ZZZY=              0.0000 XXYY=           -164.4524 XXZZ=           -169.1548 YYZZ=           -354.8257
 XXYZ=              0.0000 YYXZ=             -0.0000 ZZXY=             -0.0000
 N-N= 9.358510926702D+01 E-N=-2.651364196887D+03  KE= 1.026142415295D+03
 Symmetry A1   KE= 5.096000501358D+02
 Symmetry A2   KE= 4.538013849940D+01
 Symmetry B1   KE= 5.098117473183D+01
 Symmetry B2   KE= 4.201810519281D+02
 1\1\GINC-HELIOS\SP\RCCSD-FC\Aug-CC-pVTZ\Cl2F1Li1(2-)\POHL\30-May-2025\
 0\\# CCSD/aug-cc-pVTZ SP\\Single-point energy of X- + Y- at fixed dist
 ance R\\-2,1\F,0,0.,0.,5.\Cl,0,-2.14,0.,0.\Li,0,0.,0.,0.\Cl,0,2.14,0.,
 0.\\Version=EM64L-G16RevB.01\State=1-A1\HF=-1026.0749214\MP2=-1026.785
 0558\MP3=-1026.8075745\MP4D=-1026.8220521\MP4DQ=-1026.8071515\MP4SDQ=-
 1026.8130362\CCSD=-1026.8089213\RMSD=2.483e-09\PG=C02V [C2(Li1F1),SGV(
 Cl2)]\\@


 IT WAS A GAME, A VERY INTERESTING GAME ONE COULD
 PLAY.  WHENEVER ONE SOLVED ONE OF THE LITTLE PROBLEMS,
 ONE COULD WRITE A PAPER ABOUT IT.  IT WAS VERY EASY IN
 THOSE DAYS FOR ANY SECOND-RATE PHYSICIST TO DO
 FIRST-RATE WORK.  THERE HAS NOT BEEN SUCH A GLORIOUS
 TIME SINCE.  IT IS VERY DIFFICULT NOW FOR A FIRST-RATE
 PHYSICIST TO DO SECOND-RATE WORK.
     P.A.M. DIRAC, ON THE EARLY DAYS OF QUANTUM MECHANICS
                   DIRECTIONS IN PHYSICS, 1978, P. 7
 Job cpu time:       0 days  0 hours  9 minutes 14.7 seconds.
 Elapsed time:       0 days  0 hours  0 minutes 55.7 seconds.
 File lengths (MBytes):  RWF=   1120 Int=      0 D2E=      0 Chk=      4 Scr=      1
 Normal termination of Gaussian 16 at Fri May 30 10:32:09 2025.
