 Entering Gaussian System, Link 0=g16
 Initial command:
 /opt/g16/l1.exe "/home/pohl/scratches/g16/Gau-2120376.inp" -scrdir="/home/pohl/scratches/g16/"
 Entering Link 1 = /opt/g16/l1.exe PID=   2120378.
  
 Copyright (c) 1988-2017, Gaussian, Inc.  All Rights Reserved.
  
 This is part of the Gaussian(R) 16 program.  It is based on
 the Gaussian(R) 09 system (copyright 2009, Gaussian, Inc.),
 the Gaussian(R) 03 system (copyright 2003, Gaussian, Inc.),
 the Gaussian(R) 98 system (copyright 1998, Gaussian, Inc.),
 the Gaussian(R) 94 system (copyright 1995, Gaussian, Inc.),
 the Gaussian 92(TM) system (copyright 1992, Gaussian, Inc.),
 the Gaussian 90(TM) system (copyright 1990, Gaussian, Inc.),
 the Gaussian 88(TM) system (copyright 1988, Gaussian, Inc.),
 the Gaussian 86(TM) system (copyright 1986, Carnegie Mellon
 University), and the Gaussian 82(TM) system (copyright 1983,
 Carnegie Mellon University). Gaussian is a federally registered
 trademark of Gaussian, Inc.
  
 This software contains proprietary and confidential information,
 including trade secrets, belonging to Gaussian, Inc.
  
 This software is provided under written license and may be
 used, copied, transmitted, or stored only in accord with that
 written license.
  
 The following legend is applicable only to US Government
 contracts under FAR:
  
                    RESTRICTED RIGHTS LEGEND
  
 Use, reproduction and disclosure by the US Government is
 subject to restrictions as set forth in subparagraphs (a)
 and (c) of the Commercial Computer Software - Restricted
 Rights clause in FAR 52.227-19.
  
 Gaussian, Inc.
 340 Quinnipiac St., Bldg. 40, Wallingford CT 06492
  
  
 ---------------------------------------------------------------
 Warning -- This program may not be used in any manner that
 competes with the business of Gaussian, Inc. or will provide
 assistance to any competitor of Gaussian, Inc.  The licensee
 of this program is prohibited from giving any competitor of
 Gaussian, Inc. access to this program.  By using this program,
 the user acknowledges that Gaussian, Inc. is engaged in the
 business of creating and licensing software in the field of
 computational chemistry and represents and warrants to the
 licensee that it is not a competitor of Gaussian, Inc. and that
 it will not use this program in any manner prohibited above.
 ---------------------------------------------------------------
  

 Cite this work as:
 Gaussian 16, Revision B.01,
 M. J. Frisch, G. W. Trucks, H. B. Schlegel, G. E. Scuseria, 
 M. A. Robb, J. R. Cheeseman, G. Scalmani, V. Barone, 
 G. A. Petersson, H. Nakatsuji, X. Li, M. Caricato, A. V. Marenich, 
 J. Bloino, B. G. Janesko, R. Gomperts, B. Mennucci, H. P. Hratchian, 
 J. V. Ortiz, A. F. Izmaylov, J. L. Sonnenberg, D. Williams-Young, 
 F. Ding, F. Lipparini, F. Egidi, J. Goings, B. Peng, A. Petrone, 
 T. Henderson, D. Ranasinghe, V. G. Zakrzewski, J. Gao, N. Rega, 
 G. Zheng, W. Liang, M. Hada, M. Ehara, K. Toyota, R. Fukuda, 
 J. Hasegawa, M. Ishida, T. Nakajima, Y. Honda, O. Kitao, H. Nakai, 
 T. Vreven, K. Throssell, J. A. Montgomery, Jr., J. E. Peralta, 
 F. Ogliaro, M. J. Bearpark, J. J. Heyd, E. N. Brothers, K. N. Kudin, 
 V. N. Staroverov, T. A. Keith, R. Kobayashi, J. Normand, 
 K. Raghavachari, A. P. Rendell, J. C. Burant, S. S. Iyengar, 
 J. Tomasi, M. Cossi, J. M. Millam, M. Klene, C. Adamo, R. Cammi, 
 J. W. Ochterski, R. L. Martin, K. Morokuma, O. Farkas, 
 J. B. Foresman, and D. J. Fox, Gaussian, Inc., Wallingford CT, 2016.
 
 ******************************************
 Gaussian 16:  EM64L-G16RevB.01 20-Dec-2017
                30-May-2025 
 ******************************************
 %mem=30GB
 %nprocshared=10
 Will use up to   10 processors via shared memory.
 ---------------------
 # CCSD/aug-cc-pVTZ SP
 ---------------------
 1/38=1,172=1/1;
 2/12=2,17=6,18=5,40=1/2;
 3/5=16,6=1,7=10,11=9,25=1,30=1/1,2,3;
 4//1;
 5/5=2,38=5/2;
 8/6=4,9=120000,10=1/1,4;
 9/5=7/13;
 6/7=2,8=2,9=2,10=2/1;
 99/5=1,9=1/99;
 --------------------------------------------------
 Single-point energy of X- + Y- at fixed distance R
 --------------------------------------------------
 Symbolic Z-matrix:
 Charge = -2 Multiplicity = 1
 F                     0.        0.        7. 
 Cl                   -2.14      0.        0. 
 Li                    0.        0.        0. 
 Cl                    2.14      0.        0. 
 
                          Input orientation:                          
 ---------------------------------------------------------------------
 Center     Atomic      Atomic             Coordinates (Angstroms)
 Number     Number       Type             X           Y           Z
 ---------------------------------------------------------------------
      1          9           0        0.000000    0.000000    7.000000
      2         17           0       -2.140000    0.000000    0.000000
      3          3           0        0.000000    0.000000    0.000000
      4         17           0        2.140000    0.000000    0.000000
 ---------------------------------------------------------------------
                    Distance matrix (angstroms):
                    1          2          3          4
     1  F    0.000000
     2  Cl   7.319809   0.000000
     3  Li   7.000000   2.140000   0.000000
     4  Cl   7.319809   4.280000   2.140000   0.000000
 Stoichiometry    Cl2FLi(2-)
 Framework group  C2V[C2(LiF),SGV(Cl2)]
 Deg. of freedom     3
 Full point group                 C2V     NOp   4
 Largest Abelian subgroup         C2V     NOp   4
 Largest concise Abelian subgroup C2      NOp   2
                         Standard orientation:                         
 ---------------------------------------------------------------------
 Center     Atomic      Atomic             Coordinates (Angstroms)
 Number     Number       Type             X           Y           Z
 ---------------------------------------------------------------------
      1          9           0       -0.000000    0.000000    5.630435
      2         17           0        0.000000    2.140000   -1.369565
      3          3           0        0.000000    0.000000   -1.369565
      4         17           0       -0.000000   -2.140000   -1.369565
 ---------------------------------------------------------------------
 Rotational constants (GHZ):           1.5778956           0.6769070           0.4736949
 Standard basis: Aug-CC-pVTZ (5D, 7F)
 There are    88 symmetry adapted cartesian basis functions of A1  symmetry.
 There are    29 symmetry adapted cartesian basis functions of A2  symmetry.
 There are    45 symmetry adapted cartesian basis functions of B1  symmetry.
 There are    66 symmetry adapted cartesian basis functions of B2  symmetry.
 There are    71 symmetry adapted basis functions of A1  symmetry.
 There are    27 symmetry adapted basis functions of A2  symmetry.
 There are    39 symmetry adapted basis functions of B1  symmetry.
 There are    55 symmetry adapted basis functions of B2  symmetry.
   192 basis functions,   374 primitive gaussians,   228 cartesian basis functions
    24 alpha electrons       24 beta electrons
       nuclear repulsion energy        85.1173234157 Hartrees.
 NAtoms=    4 NActive=    4 NUniq=    3 SFac= 1.78D+00 NAtFMM=   60 NAOKFM=F Big=F
 Integral buffers will be    131072 words long.
 Raffenetti 1 integral format.
 Two-electron integral symmetry is turned on.
 One-electron integrals computed using PRISM.
 NBasis=   192 RedAO= T EigKep=  1.11D-04  NBF=    71    27    39    55
 NBsUse=   192 1.00D-06 EigRej= -1.00D+00 NBFU=    71    27    39    55
 ExpMin= 7.59D-03 ExpMax= 4.56D+05 ExpMxC= 1.44D+03 IAcc=3 IRadAn=         5 AccDes= 0.00D+00
 Harris functional with IExCor=  205 and IRadAn=       5 diagonalized for initial guess.
 HarFok:  IExCor=  205 AccDes= 0.00D+00 IRadAn=         5 IDoV= 1 UseB2=F ITyADJ=14
 ICtDFT=  3500011 ScaDFX=  1.000000  1.000000  1.000000  1.000000
 FoFCou: FMM=F IPFlag=           0 FMFlag=      100000 FMFlg1=           0
         NFxFlg=           0 DoJE=T BraDBF=F KetDBF=T FulRan=T
         wScrn=  0.000000 ICntrl=       500 IOpCl=  0 I1Cent=   200000004 NGrid=           0
         NMat0=    1 NMatS0=      1 NMatT0=    0 NMatD0=    1 NMtDS0=    0 NMtDT0=    0
 Petite list used in FoFCou.
 Initial guess orbital symmetries:
       Occupied  (A1) (B2) (A1) (A1) (B2) (B2) (A1) (A1) (B1) (B2)
                 (A2) (A1) (A1) (B2) (A1) (A1) (B2) (B1) (B2) (A1)
                 (A1) (B1) (B2) (A2)
       Virtual   (A1) (A1) (B1) (B2) (A1) (A1) (B1) (A1) (B2) (B1)
                 (A1) (A1) (B2) (A2) (B1) (B2) (A1) (A1) (B1) (A1)
                 (B2) (A2) (A1) (B1) (B2) (B2) (A2) (B2) (A1) (B1)
                 (B2) (A1) (A1) (A2) (B2) (B1) (A1) (B1) (A1) (B2)
                 (B1) (A1) (A1) (A2) (B2) (B1) (A1) (B1) (A1) (A1)
                 (A2) (B2) (B2) (B2) (B2) (A2) (B1) (A1) (A1) (B2)
                 (A2) (B1) (A1) (A1) (A2) (B2) (B1) (A1) (B2) (A1)
                 (A2) (B2) (A1) (B1) (B1) (A1) (A1) (B1) (B2) (A2)
                 (B2) (B2) (A2) (B1) (B2) (A1) (A1) (A2) (B2) (B1)
                 (A1) (B1) (A1) (A1) (B1) (A1) (B2) (B1) (A1) (A2)
                 (B2) (A1) (B2) (A2) (B2) (A1) (B2) (B1) (A1) (A2)
                 (B2) (A2) (B2) (B1) (A1) (A1) (B2) (B2) (A2) (A2)
                 (A1) (B1) (B2) (A1) (A1) (A2) (B1) (B2) (B1) (B2)
                 (A1) (B1) (A1) (A1) (A1) (A2) (B2) (B1) (A1) (B2)
                 (B1) (A1) (B1) (A1) (A2) (B2) (A2) (B2) (B2) (A1)
                 (B1) (B2) (A1) (B2) (A1) (A2) (B1) (B2) (A1) (B1)
                 (B2) (A1) (A2) (A1) (B1) (B2) (A1) (A1)
 The electronic state of the initial guess is 1-A1.
 Keep R1 ints in memory in symmetry-blocked form, NReq=215097955.
 Requested convergence on RMS density matrix=1.00D-08 within 128 cycles.
 Requested convergence on MAX density matrix=1.00D-06.
 Requested convergence on             energy=1.00D-06.
 No special actions if energy rises.
 SCF Done:  E(RHF) =  -1026.09526506     A.U. after   10 cycles
            NFock= 10  Conv=0.76D-08     -V/T= 1.9999
 ExpMin= 7.59D-03 ExpMax= 4.56D+05 ExpMxC= 1.44D+03 IAcc=3 IRadAn=         5 AccDes= 0.00D+00
 HarFok:  IExCor=  205 AccDes= 0.00D+00 IRadAn=         5 IDoV=-2 UseB2=F ITyADJ=14
 ICtDFT= 12500011 ScaDFX=  1.000000  1.000000  1.000000  1.000000
 Range of M.O.s used for correlation:    13   192
 NBasis=   192 NAE=    24 NBE=    24 NFC=    12 NFV=     0
 NROrb=    180 NOA=    12 NOB=    12 NVA=   168 NVB=   168

 **** Warning!!: The largest alpha MO coefficient is  0.35791682D+02

 Semi-Direct transformation.
 ModeAB=           4 MOrb=            12 LenV=    4025530063
 LASXX=      8444399 LTotXX=     8444399 LenRXX=    17045430
 LTotAB=     8601031 MaxLAS=    31119120 LenRXY=           0
 NonZer=    25489829 LenScr=    39014400 LnRSAI=    31119120
 LnScr1=    47441408 LExtra=           0 Total=    134620358
 MaxDsk=          -1 SrtSym=           T ITran=            4
 JobTyp=0 Pass  1:  I=   1 to  12.
 (rs|ai) integrals will be sorted in core.
 Spin components of T(2) and E(2):
     alpha-alpha T2 =       0.3050713696D-01 E2=     -0.9092430520D-01
     alpha-beta  T2 =       0.1616673969D+00 E2=     -0.5280156457D+00
     beta-beta   T2 =       0.3050713696D-01 E2=     -0.9092430520D-01
 ANorm=    0.1105749371D+01
 E2 =    -0.7098642561D+00 EUMP2 =    -0.10268051293121D+04
 Keep R2 and R3 ints in memory in symmetry-blocked form, NReq=215104941.
 CIDS: In Core Option IDoMem=           1.
 Iterations=  50 Convergence= 0.100D-06
 Produce multiple copies of IABC intergrals
 Iteration Nr.   1
 **********************
 DD1Dir will call FoFMem   1 times, MxPair=       156
 NAB=    78 NAA=     0 NBB=     0.
 MP4(R+Q)=  0.14876092D-01
 E3=       -0.22572539D-01        EUMP3=      -0.10268277019D+04
 E4(DQ)=    0.41137081D-03        UMP4(DQ)=   -0.10268272905D+04
 E4(SDQ)=  -0.54245050D-02        UMP4(SDQ)=  -0.10268331264D+04
 DE(Corr)= -0.71703154     E(Corr)=     -1026.8122966    
 NORM(A)=   0.11107992D+01
 Iteration Nr.   2
 **********************
 DD1Dir will call FoFMem   1 times, MxPair=       156
 NAB=    78 NAA=     0 NBB=     0.
 DE(Corr)= -0.73363174     E(CORR)=     -1026.8288968     Delta=-1.66D-02
 NORM(A)=   0.11157384D+01
 Iteration Nr.   3
 **********************
 DD1Dir will call FoFMem   1 times, MxPair=       156
 NAB=    78 NAA=     0 NBB=     0.
 DE(Corr)= -0.73207277     E(CORR)=     -1026.8273378     Delta= 1.56D-03
 NORM(A)=   0.11174164D+01
 Iteration Nr.   4
 **********************
 DD1Dir will call FoFMem   1 times, MxPair=       156
 NAB=    78 NAA=     0 NBB=     0.
 DE(Corr)= -0.73361787     E(CORR)=     -1026.8288829     Delta=-1.55D-03
 NORM(A)=   0.11179645D+01
 Iteration Nr.   5
 **********************
 DD1Dir will call FoFMem   1 times, MxPair=       156
 NAB=    78 NAA=     0 NBB=     0.
 DE(Corr)= -0.73375449     E(CORR)=     -1026.8290195     Delta=-1.37D-04
 NORM(A)=   0.11181277D+01
 Iteration Nr.   6
 **********************
 DD1Dir will call FoFMem   1 times, MxPair=       156
 NAB=    78 NAA=     0 NBB=     0.
 DE(Corr)= -0.73376376     E(CORR)=     -1026.8290288     Delta=-9.27D-06
 NORM(A)=   0.11182073D+01
 Iteration Nr.   7
 **********************
 DD1Dir will call FoFMem   1 times, MxPair=       156
 NAB=    78 NAA=     0 NBB=     0.
 DE(Corr)= -0.73376356     E(CORR)=     -1026.8290286     Delta= 1.98D-07
 NORM(A)=   0.11182170D+01
 Iteration Nr.   8
 **********************
 DD1Dir will call FoFMem   1 times, MxPair=       156
 NAB=    78 NAA=     0 NBB=     0.
 DE(Corr)= -0.73376937     E(CORR)=     -1026.8290344     Delta=-5.81D-06
 NORM(A)=   0.11182209D+01
 Iteration Nr.   9
 **********************
 DD1Dir will call FoFMem   1 times, MxPair=       156
 NAB=    78 NAA=     0 NBB=     0.
 DE(Corr)= -0.73376355     E(CORR)=     -1026.8290286     Delta= 5.82D-06
 NORM(A)=   0.11182249D+01
 Iteration Nr.  10
 **********************
 DD1Dir will call FoFMem   1 times, MxPair=       156
 NAB=    78 NAA=     0 NBB=     0.
 DE(Corr)= -0.73376431     E(CORR)=     -1026.8290294     Delta=-7.67D-07
 NORM(A)=   0.11182244D+01
 Iteration Nr.  11
 **********************
 DD1Dir will call FoFMem   1 times, MxPair=       156
 NAB=    78 NAA=     0 NBB=     0.
 DE(Corr)= -0.73376371     E(CORR)=     -1026.8290288     Delta= 6.07D-07
 NORM(A)=   0.11182239D+01
 Iteration Nr.  12
 **********************
 DD1Dir will call FoFMem   1 times, MxPair=       156
 NAB=    78 NAA=     0 NBB=     0.
 DE(Corr)= -0.73376319     E(CORR)=     -1026.8290282     Delta= 5.20D-07
 NORM(A)=   0.11182231D+01
 Iteration Nr.  13
 **********************
 DD1Dir will call FoFMem   1 times, MxPair=       156
 NAB=    78 NAA=     0 NBB=     0.
 DE(Corr)= -0.73376297     E(CORR)=     -1026.8290280     Delta= 2.20D-07
 NORM(A)=   0.11182227D+01
 Iteration Nr.  14
 **********************
 DD1Dir will call FoFMem   1 times, MxPair=       156
 NAB=    78 NAA=     0 NBB=     0.
 DE(Corr)= -0.73376297     E(CORR)=     -1026.8290280     Delta=-2.37D-09
 NORM(A)=   0.11182223D+01
 Wavefunction amplitudes converged. E(Corr)=     -1026.8290280    
 Largest amplitude= 3.65D-02
 Discarding MO integrals.

 **********************************************************************

            Population analysis using the SCF Density.

 **********************************************************************

 Orbital symmetries:
       Occupied  (B2) (A1) (A1) (B2) (A1) (B2) (A1) (B1) (A2) (A1)
                 (B2) (A1) (A1) (B2) (A1) (B2) (A1) (B1) (A1) (A2)
                 (B2) (A1) (B2) (B1)
       Virtual   (A1) (B1) (B2) (A1) (A1) (B1) (B2) (A1) (A1) (B2)
                 (B1) (A2) (A1) (B2) (B1) (A1) (A2) (B2) (A1) (B1)
                 (A1) (A1) (B2) (B1) (B2) (A1) (A2) (B2) (A1) (B1)
                 (B1) (A1) (B2) (A1) (B1) (A1) (A1) (A2) (B2) (B1)
                 (A1) (B2) (A1) (B1) (A1) (A2) (B2) (A1) (A2) (B2)
                 (B1) (A1) (B2) (B2) (B1) (A1) (A1) (A2) (B2) (A2)
                 (B2) (B1) (A1) (A2) (B2) (B2) (B1) (A1) (B1) (A1)
                 (A1) (B1) (A1) (A2) (A1) (B1) (B2) (A1) (A2) (B2)
                 (A2) (B2) (A1) (B2) (A2) (B2) (A1) (B1) (B2) (B1)
                 (A1) (B1) (A1) (B1) (B2) (A1) (A1) (B1) (A1) (A2)
                 (B2) (B2) (A2) (B2) (A1) (A1) (B2) (B1) (A1) (A2)
                 (B2) (A2) (B2) (B1) (A1) (A1) (B2) (A2) (B2) (A1)
                 (B1) (A1) (A2) (A1) (B1) (B2) (A1) (A2) (B2) (B1)
                 (A1) (A1) (B1) (B2) (A1) (A2) (B1) (B2) (A1) (B1)
                 (A1) (B2) (B1) (A1) (A2) (B2) (A2) (B2) (B2) (A1)
                 (B1) (B2) (A1) (B2) (A1) (B1) (B2) (A1) (A2) (B1)
                 (B2) (A1) (A2) (A1) (B1) (B2) (A1) (A1)
 The electronic state is 1-A1.
 Alpha  occ. eigenvalues -- -104.51637-104.51637 -25.76457 -10.24154 -10.24154
 Alpha  occ. eigenvalues --   -7.70774  -7.70774  -7.70759  -7.70759  -7.70758
 Alpha  occ. eigenvalues --   -7.70758  -2.17264  -1.00687  -0.75710  -0.75565
 Alpha  occ. eigenvalues --   -0.18962  -0.18645  -0.16926  -0.16864  -0.16408
 Alpha  occ. eigenvalues --   -0.16353  -0.11181  -0.11179  -0.11178
 Alpha virt. eigenvalues --    0.13729   0.14988   0.15244   0.18955   0.23822
 Alpha virt. eigenvalues --    0.24363   0.25904   0.26724   0.29294   0.30350
 Alpha virt. eigenvalues --    0.30523   0.31984   0.32180   0.33324   0.33942
 Alpha virt. eigenvalues --    0.34860   0.37695   0.38815   0.38856   0.39060
 Alpha virt. eigenvalues --    0.40555   0.42043   0.46664   0.50881   0.51387
 Alpha virt. eigenvalues --    0.51687   0.53140   0.53427   0.53663   0.54015
 Alpha virt. eigenvalues --    0.54567   0.54662   0.54878   0.55124   0.59813
 Alpha virt. eigenvalues --    0.60230   0.61133   0.62028   0.62901   0.67714
 Alpha virt. eigenvalues --    0.67755   0.68503   0.68683   0.69179   0.69853
 Alpha virt. eigenvalues --    0.71572   0.71878   0.76012   0.77169   0.77248
 Alpha virt. eigenvalues --    0.81014   0.81687   0.85267   0.97466   1.06047
 Alpha virt. eigenvalues --    1.06565   1.07050   1.08288   1.08619   1.12472
 Alpha virt. eigenvalues --    1.12484   1.15391   1.15654   1.17324   1.17589
 Alpha virt. eigenvalues --    1.18174   1.18426   1.18517   1.19050   1.19567
 Alpha virt. eigenvalues --    1.22312   1.25893   1.25929   1.29722   1.29725
 Alpha virt. eigenvalues --    1.29830   1.29953   1.30390   1.37688   1.37710
 Alpha virt. eigenvalues --    1.39337   1.39484   1.40288   1.42532   1.46185
 Alpha virt. eigenvalues --    1.46185   1.50326   1.50327   1.56133   1.57244
 Alpha virt. eigenvalues --    1.57248   1.59059   1.59461   1.59725   1.59918
 Alpha virt. eigenvalues --    1.61601   1.63548   1.73850   1.74031   1.79441
 Alpha virt. eigenvalues --    1.79449   1.93909   2.00187   2.00316   2.15062
 Alpha virt. eigenvalues --    2.17777   2.35285   2.85394   2.85467   2.90941
 Alpha virt. eigenvalues --    2.90948   2.94133   2.94193   2.95862   2.96251
 Alpha virt. eigenvalues --    3.02353   3.06135   3.17193   3.17307   3.31088
 Alpha virt. eigenvalues --    3.32142   3.32268   3.35232   3.35234   3.35280
 Alpha virt. eigenvalues --    3.35338   3.35514   3.35802   3.35802   3.38071
 Alpha virt. eigenvalues --    3.38075   3.39186   3.40063   3.40063   3.40090
 Alpha virt. eigenvalues --    3.40091   3.40105   3.40115   3.40128   3.42041
 Alpha virt. eigenvalues --    3.42051   3.43519   3.50233   3.50300   3.52190
 Alpha virt. eigenvalues --    3.52193   3.65513   3.65573   3.83430   4.41891
 Alpha virt. eigenvalues --    5.74263   5.74398   5.75741   6.86132   7.40980
 Alpha virt. eigenvalues --    9.33700   9.33700   9.33714   9.33714   9.33722
 Alpha virt. eigenvalues --    9.33727   9.33730   9.81422   9.81423   9.81447
 Alpha virt. eigenvalues --    9.81480   9.81632  11.09411
          Condensed to atoms (all electrons):
               1          2          3          4
     1  F   10.001246   0.000056  -0.000744   0.000056
     2  Cl   0.000056  17.580310   0.186118  -0.015245
     3  Li  -0.000744   0.186118   2.125416   0.186118
     4  Cl   0.000056  -0.015245   0.186118  17.580310
 Mulliken charges:
               1
     1  F   -1.000615
     2  Cl  -0.751239
     3  Li   0.503093
     4  Cl  -0.751239
 Sum of Mulliken charges =  -2.00000
 Mulliken charges with hydrogens summed into heavy atoms:
               1
     1  F   -1.000615
     2  Cl  -0.751239
     3  Li   0.503093
     4  Cl  -0.751239
 Electronic spatial extent (au):  <R**2>=           2059.5122
 Charge=             -2.0000 electrons
 Dipole moment (field-independent basis, Debye):
    X=              0.0000    Y=             -0.0000    Z=            -19.9658  Tot=             19.9658
 Quadrupole moment (field-independent basis, Debye-Ang):
   XX=            -40.1883   YY=            -74.3674   ZZ=           -203.8889
   XY=             -0.0000   XZ=             -0.0000   YZ=              0.0000
 Traceless Quadrupole moment (field-independent basis, Debye-Ang):
   XX=             65.9599   YY=             31.7808   ZZ=            -97.7407
   XY=             -0.0000   XZ=             -0.0000   YZ=              0.0000
 Octapole moment (field-independent basis, Debye-Ang**2):
  XXX=              0.0000  YYY=             -0.0000  ZZZ=           -833.9205  XYY=              0.0000
  XXY=              0.0000  XXZ=              5.3175  XZZ=              0.0000  YZZ=             -0.0000
  YYZ=             54.4324  XYZ=              0.0000
 Hexadecapole moment (field-independent basis, Debye-Ang**3):
 XXXX=            -56.4858 YYYY=          -1049.1489 ZZZZ=          -6710.0588 XXXY=             -0.0000
 XXXZ=             -0.0000 YYYX=             -0.0000 YYYZ=             -0.0000 ZZZX=             -0.0000
 ZZZY=              0.0000 XXYY=           -163.0247 XXZZ=           -310.0327 YYZZ=           -524.2067
 XXYZ=             -0.0000 YYXZ=             -0.0000 ZZXY=             -0.0000
 N-N= 8.511732341567D+01 E-N=-2.633382067935D+03  KE= 1.026147770514D+03
 Symmetry A1   KE= 5.095940495251D+02
 Symmetry A2   KE= 4.538691183010D+01
 Symmetry B1   KE= 5.098885862000D+01
 Symmetry B2   KE= 4.201779505389D+02
 1\1\GINC-HELIOS\SP\RCCSD-FC\Aug-CC-pVTZ\Cl2F1Li1(2-)\POHL\30-May-2025\
 0\\# CCSD/aug-cc-pVTZ SP\\Single-point energy of X- + Y- at fixed dist
 ance R\\-2,1\F,0,0.,0.,7.\Cl,0,-2.14,0.,0.\Li,0,0.,0.,0.\Cl,0,2.14,0.,
 0.\\Version=EM64L-G16RevB.01\State=1-A1\HF=-1026.0952651\MP2=-1026.805
 1293\MP3=-1026.8277019\MP4D=-1026.8421666\MP4DQ=-1026.8272905\MP4SDQ=-
 1026.8331264\CCSD=-1026.829028\RMSD=7.635e-09\PG=C02V [C2(Li1F1),SGV(C
 l2)]\\@


 YOU SHOULDN'T LET PEOPLE DRIVE YOU CRAZY
 WHEN YOU KNOW IT'S WITHIN WALKING DISTANCE.
 Job cpu time:       0 days  0 hours  8 minutes  4.0 seconds.
 Elapsed time:       0 days  0 hours  0 minutes 48.7 seconds.
 File lengths (MBytes):  RWF=   1076 Int=      0 D2E=      0 Chk=      4 Scr=      1
 Normal termination of Gaussian 16 at Fri May 30 10:33:50 2025.
