 Entering Gaussian System, Link 0=g16
 Initial command:
 /opt/g16/l1.exe "/home/pohl/scratches/g16/Gau-2119056.inp" -scrdir="/home/pohl/scratches/g16/"
 Entering Link 1 = /opt/g16/l1.exe PID=   2119058.
  
 Copyright (c) 1988-2017, Gaussian, Inc.  All Rights Reserved.
  
 This is part of the Gaussian(R) 16 program.  It is based on
 the Gaussian(R) 09 system (copyright 2009, Gaussian, Inc.),
 the Gaussian(R) 03 system (copyright 2003, Gaussian, Inc.),
 the Gaussian(R) 98 system (copyright 1998, Gaussian, Inc.),
 the Gaussian(R) 94 system (copyright 1995, Gaussian, Inc.),
 the Gaussian 92(TM) system (copyright 1992, Gaussian, Inc.),
 the Gaussian 90(TM) system (copyright 1990, Gaussian, Inc.),
 the Gaussian 88(TM) system (copyright 1988, Gaussian, Inc.),
 the Gaussian 86(TM) system (copyright 1986, Carnegie Mellon
 University), and the Gaussian 82(TM) system (copyright 1983,
 Carnegie Mellon University). Gaussian is a federally registered
 trademark of Gaussian, Inc.
  
 This software contains proprietary and confidential information,
 including trade secrets, belonging to Gaussian, Inc.
  
 This software is provided under written license and may be
 used, copied, transmitted, or stored only in accord with that
 written license.
  
 The following legend is applicable only to US Government
 contracts under FAR:
  
                    RESTRICTED RIGHTS LEGEND
  
 Use, reproduction and disclosure by the US Government is
 subject to restrictions as set forth in subparagraphs (a)
 and (c) of the Commercial Computer Software - Restricted
 Rights clause in FAR 52.227-19.
  
 Gaussian, Inc.
 340 Quinnipiac St., Bldg. 40, Wallingford CT 06492
  
  
 ---------------------------------------------------------------
 Warning -- This program may not be used in any manner that
 competes with the business of Gaussian, Inc. or will provide
 assistance to any competitor of Gaussian, Inc.  The licensee
 of this program is prohibited from giving any competitor of
 Gaussian, Inc. access to this program.  By using this program,
 the user acknowledges that Gaussian, Inc. is engaged in the
 business of creating and licensing software in the field of
 computational chemistry and represents and warrants to the
 licensee that it is not a competitor of Gaussian, Inc. and that
 it will not use this program in any manner prohibited above.
 ---------------------------------------------------------------
  

 Cite this work as:
 Gaussian 16, Revision B.01,
 M. J. Frisch, G. W. Trucks, H. B. Schlegel, G. E. Scuseria, 
 M. A. Robb, J. R. Cheeseman, G. Scalmani, V. Barone, 
 G. A. Petersson, H. Nakatsuji, X. Li, M. Caricato, A. V. Marenich, 
 J. Bloino, B. G. Janesko, R. Gomperts, B. Mennucci, H. P. Hratchian, 
 J. V. Ortiz, A. F. Izmaylov, J. L. Sonnenberg, D. Williams-Young, 
 F. Ding, F. Lipparini, F. Egidi, J. Goings, B. Peng, A. Petrone, 
 T. Henderson, D. Ranasinghe, V. G. Zakrzewski, J. Gao, N. Rega, 
 G. Zheng, W. Liang, M. Hada, M. Ehara, K. Toyota, R. Fukuda, 
 J. Hasegawa, M. Ishida, T. Nakajima, Y. Honda, O. Kitao, H. Nakai, 
 T. Vreven, K. Throssell, J. A. Montgomery, Jr., J. E. Peralta, 
 F. Ogliaro, M. J. Bearpark, J. J. Heyd, E. N. Brothers, K. N. Kudin, 
 V. N. Staroverov, T. A. Keith, R. Kobayashi, J. Normand, 
 K. Raghavachari, A. P. Rendell, J. C. Burant, S. S. Iyengar, 
 J. Tomasi, M. Cossi, J. M. Millam, M. Klene, C. Adamo, R. Cammi, 
 J. W. Ochterski, R. L. Martin, K. Morokuma, O. Farkas, 
 J. B. Foresman, and D. J. Fox, Gaussian, Inc., Wallingford CT, 2016.
 
 ******************************************
 Gaussian 16:  EM64L-G16RevB.01 20-Dec-2017
                30-May-2025 
 ******************************************
 %mem=30GB
 %nprocshared=10
 Will use up to   10 processors via shared memory.
 ---------------------
 # CCSD/aug-cc-pVTZ SP
 ---------------------
 1/38=1,172=1/1;
 2/12=2,17=6,18=5,40=1/2;
 3/5=16,6=1,7=10,11=9,25=1,30=1/1,2,3;
 4//1;
 5/5=2,38=5/2;
 8/6=4,9=120000,10=1/1,4;
 9/5=7/13;
 6/7=2,8=2,9=2,10=2/1;
 99/5=1,9=1/99;
 --------------------------------------------------
 Single-point energy of X- + Y- at fixed distance R
 --------------------------------------------------
 Symbolic Z-matrix:
 Charge = -2 Multiplicity = 1
 F                     0.        0.        2.5 
 Cl                   -2.14      0.        0. 
 Li                    0.        0.        0. 
 Cl                    2.14      0.        0. 
 
                          Input orientation:                          
 ---------------------------------------------------------------------
 Center     Atomic      Atomic             Coordinates (Angstroms)
 Number     Number       Type             X           Y           Z
 ---------------------------------------------------------------------
      1          9           0        0.000000    0.000000    2.500000
      2         17           0       -2.140000    0.000000    0.000000
      3          3           0        0.000000    0.000000    0.000000
      4         17           0        2.140000    0.000000    0.000000
 ---------------------------------------------------------------------
                    Distance matrix (angstroms):
                    1          2          3          4
     1  F    0.000000
     2  Cl   3.290836   0.000000
     3  Li   2.500000   2.140000   0.000000
     4  Cl   3.290836   4.280000   2.140000   0.000000
 Stoichiometry    Cl2FLi(2-)
 Framework group  C2V[C2(LiF),SGV(Cl2)]
 Deg. of freedom     3
 Full point group                 C2V     NOp   4
 Largest Abelian subgroup         C2V     NOp   4
 Largest concise Abelian subgroup C2      NOp   2
                         Standard orientation:                         
 ---------------------------------------------------------------------
 Center     Atomic      Atomic             Coordinates (Angstroms)
 Number     Number       Type             X           Y           Z
 ---------------------------------------------------------------------
      1          9           0        0.000000    0.000000    2.010870
      2         17           0       -0.000000    2.140000   -0.489130
      3          3           0       -0.000000    0.000000   -0.489130
      4         17           0       -0.000000   -2.140000   -0.489130
 ---------------------------------------------------------------------
 Rotational constants (GHZ):           5.3069508           1.5778956           1.2162674
 Standard basis: Aug-CC-pVTZ (5D, 7F)
 There are    88 symmetry adapted cartesian basis functions of A1  symmetry.
 There are    29 symmetry adapted cartesian basis functions of A2  symmetry.
 There are    45 symmetry adapted cartesian basis functions of B1  symmetry.
 There are    66 symmetry adapted cartesian basis functions of B2  symmetry.
 There are    71 symmetry adapted basis functions of A1  symmetry.
 There are    27 symmetry adapted basis functions of A2  symmetry.
 There are    39 symmetry adapted basis functions of B1  symmetry.
 There are    55 symmetry adapted basis functions of B2  symmetry.
   192 basis functions,   374 primitive gaussians,   228 cartesian basis functions
    24 alpha electrons       24 beta electrons
       nuclear repulsion energy       115.8752109296 Hartrees.
 NAtoms=    4 NActive=    4 NUniq=    3 SFac= 1.78D+00 NAtFMM=   60 NAOKFM=F Big=F
 Integral buffers will be    131072 words long.
 Raffenetti 1 integral format.
 Two-electron integral symmetry is turned on.
 One-electron integrals computed using PRISM.
 NBasis=   192 RedAO= T EigKep=  1.08D-04  NBF=    71    27    39    55
 NBsUse=   192 1.00D-06 EigRej= -1.00D+00 NBFU=    71    27    39    55
 ExpMin= 7.59D-03 ExpMax= 4.56D+05 ExpMxC= 1.44D+03 IAcc=3 IRadAn=         5 AccDes= 0.00D+00
 Harris functional with IExCor=  205 and IRadAn=       5 diagonalized for initial guess.
 HarFok:  IExCor=  205 AccDes= 0.00D+00 IRadAn=         5 IDoV= 1 UseB2=F ITyADJ=14
 ICtDFT=  3500011 ScaDFX=  1.000000  1.000000  1.000000  1.000000
 FoFCou: FMM=F IPFlag=           0 FMFlag=      100000 FMFlg1=           0
         NFxFlg=           0 DoJE=T BraDBF=F KetDBF=T FulRan=T
         wScrn=  0.000000 ICntrl=       500 IOpCl=  0 I1Cent=   200000004 NGrid=           0
         NMat0=    1 NMatS0=      1 NMatT0=    0 NMatD0=    1 NMtDS0=    0 NMtDT0=    0
 Petite list used in FoFCou.
 Initial guess orbital symmetries:
       Occupied  (A1) (B2) (A1) (A1) (B2) (B2) (A1) (B1) (A1) (B2)
                 (A2) (A1) (A1) (B2) (A1) (A1) (B2) (B1) (B2) (A1)
                 (B1) (A1) (A2) (B2)
       Virtual   (A1) (B1) (A1) (B2) (A1) (B1) (A1) (B2) (B1) (A1)
                 (A1) (A2) (B2) (B1) (A1) (B2) (A1) (B1) (A1) (A2)
                 (B2) (A1) (B2) (A2) (B2) (A1) (B1) (B1) (B2) (A1)
                 (A1) (B2) (A2) (A1) (B1) (B2) (B2) (A1) (B1) (A1)
                 (B1) (A1) (B2) (A2) (B1) (A1) (B1) (A1) (A1) (A2)
                 (B2) (B2) (A1) (B2) (B2) (A2) (B1) (A1) (A1) (A2)
                 (B2) (B1) (A1) (B2) (A1) (A2) (B1) (B2) (A1) (A1)
                 (B1) (A2) (B2) (B1) (A1) (A1) (A2) (B2) (A2) (B2)
                 (B1) (A1) (A1) (B2) (B2) (A2) (B1) (A1) (B1) (A1)
                 (B1) (A1) (B2) (B1) (A1) (B2) (A1) (B1) (A2) (B2)
                 (B2) (A1) (B2) (A2) (A1) (B2) (A1) (B1) (A1) (A2)
                 (B2) (A2) (B2) (B1) (A1) (A1) (B2) (B2) (A2) (A1)
                 (A2) (A1) (B1) (B2) (A1) (B1) (B1) (B2) (A2) (A1)
                 (A1) (A1) (B1) (B2) (A2) (A1) (B2) (B1) (B1) (A1)
                 (B1) (B2) (A2) (A1) (B2) (A1) (A2) (B2) (B2) (A1)
                 (B1) (B2) (A1) (B2) (A1) (B1) (A2) (B2) (A1) (B1)
                 (A1) (B2) (A2) (A1) (B1) (B2) (A1) (A1)
 The electronic state of the initial guess is 1-A1.
 Keep R1 ints in memory in symmetry-blocked form, NReq=215097955.
 Requested convergence on RMS density matrix=1.00D-08 within 128 cycles.
 Requested convergence on MAX density matrix=1.00D-06.
 Requested convergence on             energy=1.00D-06.
 No special actions if energy rises.
 SCF Done:  E(RHF) =  -1026.04928683     A.U. after   11 cycles
            NFock= 11  Conv=0.78D-08     -V/T= 1.9999
 ExpMin= 7.59D-03 ExpMax= 4.56D+05 ExpMxC= 1.44D+03 IAcc=3 IRadAn=         5 AccDes= 0.00D+00
 HarFok:  IExCor=  205 AccDes= 0.00D+00 IRadAn=         5 IDoV=-2 UseB2=F ITyADJ=14
 ICtDFT= 12500011 ScaDFX=  1.000000  1.000000  1.000000  1.000000
 Range of M.O.s used for correlation:    13   192
 NBasis=   192 NAE=    24 NBE=    24 NFC=    12 NFV=     0
 NROrb=    180 NOA=    12 NOB=    12 NVA=   168 NVB=   168

 **** Warning!!: The largest alpha MO coefficient is  0.34010730D+02

 Semi-Direct transformation.
 ModeAB=           4 MOrb=            12 LenV=    4025510044
 LASXX=      8444399 LTotXX=     8444399 LenRXX=    17045430
 LTotAB=     8601031 MaxLAS=    35622720 LenRXY=           0
 NonZer=    25489829 LenScr=    39014400 LnRSAI=    35622720
 LnScr1=    54193152 LExtra=           0 Total=    145875702
 MaxDsk=          -1 SrtSym=           T ITran=            4
 JobTyp=0 Pass  1:  I=   1 to  12.
 (rs|ai) integrals will be sorted in core.
 Spin components of T(2) and E(2):
     alpha-alpha T2 =       0.3087230586D-01 E2=     -0.9167952331D-01
     alpha-beta  T2 =       0.1626133963D+00 E2=     -0.5298496094D+00
     beta-beta   T2 =       0.3087230586D-01 E2=     -0.9167952331D-01
 ANorm=    0.1106507121D+01
 E2 =    -0.7132086560D+00 EUMP2 =    -0.10267624954883D+04
 Keep R2 and R3 ints in memory in symmetry-blocked form, NReq=215104941.
 CIDS: In Core Option IDoMem=           1.
 Iterations=  50 Convergence= 0.100D-06
 Produce multiple copies of IABC intergrals
 Iteration Nr.   1
 **********************
 DD1Dir will call FoFMem   1 times, MxPair=       156
 NAB=    78 NAA=     0 NBB=     0.
 MP4(R+Q)=  0.15356899D-01
 E3=       -0.22899754D-01        EUMP3=      -0.10267853952D+04
 E4(DQ)=    0.10941021D-02        UMP4(DQ)=   -0.10267843011D+04
 E4(SDQ)=  -0.48699689D-02        UMP4(SDQ)=  -0.10267902652D+04
 DE(Corr)= -0.72023529     E(Corr)=     -1026.7695221    
 NORM(A)=   0.11115828D+01
 Iteration Nr.   2
 **********************
 DD1Dir will call FoFMem   1 times, MxPair=       156
 NAB=    78 NAA=     0 NBB=     0.
 DE(Corr)= -0.73681249     E(CORR)=     -1026.7860993     Delta=-1.66D-02
 NORM(A)=   0.11166739D+01
 Iteration Nr.   3
 **********************
 DD1Dir will call FoFMem   1 times, MxPair=       156
 NAB=    78 NAA=     0 NBB=     0.
 DE(Corr)= -0.73534822     E(CORR)=     -1026.7846351     Delta= 1.46D-03
 NORM(A)=   0.11185484D+01
 Iteration Nr.   4
 **********************
 DD1Dir will call FoFMem   1 times, MxPair=       156
 NAB=    78 NAA=     0 NBB=     0.
 DE(Corr)= -0.73690932     E(CORR)=     -1026.7861962     Delta=-1.56D-03
 NORM(A)=   0.11191285D+01
 Iteration Nr.   5
 **********************
 DD1Dir will call FoFMem   1 times, MxPair=       156
 NAB=    78 NAA=     0 NBB=     0.
 DE(Corr)= -0.73706672     E(CORR)=     -1026.7863536     Delta=-1.57D-04
 NORM(A)=   0.11194531D+01
 Iteration Nr.   6
 **********************
 DD1Dir will call FoFMem   1 times, MxPair=       156
 NAB=    78 NAA=     0 NBB=     0.
 DE(Corr)= -0.73708959     E(CORR)=     -1026.7863764     Delta=-2.29D-05
 NORM(A)=   0.11196119D+01
 Iteration Nr.   7
 **********************
 DD1Dir will call FoFMem   1 times, MxPair=       156
 NAB=    78 NAA=     0 NBB=     0.
 DE(Corr)= -0.73709163     E(CORR)=     -1026.7863785     Delta=-2.04D-06
 NORM(A)=   0.11196652D+01
 Iteration Nr.   8
 **********************
 DD1Dir will call FoFMem   1 times, MxPair=       156
 NAB=    78 NAA=     0 NBB=     0.
 DE(Corr)= -0.73710776     E(CORR)=     -1026.7863946     Delta=-1.61D-05
 NORM(A)=   0.11196889D+01
 Iteration Nr.   9
 **********************
 DD1Dir will call FoFMem   1 times, MxPair=       156
 NAB=    78 NAA=     0 NBB=     0.
 DE(Corr)= -0.73709362     E(CORR)=     -1026.7863805     Delta= 1.41D-05
 NORM(A)=   0.11197106D+01
 Iteration Nr.  10
 **********************
 DD1Dir will call FoFMem   1 times, MxPair=       156
 NAB=    78 NAA=     0 NBB=     0.
 DE(Corr)= -0.73709620     E(CORR)=     -1026.7863830     Delta=-2.58D-06
 NORM(A)=   0.11197094D+01
 Iteration Nr.  11
 **********************
 DD1Dir will call FoFMem   1 times, MxPair=       156
 NAB=    78 NAA=     0 NBB=     0.
 DE(Corr)= -0.73709498     E(CORR)=     -1026.7863818     Delta= 1.21D-06
 NORM(A)=   0.11197087D+01
 Iteration Nr.  12
 **********************
 DD1Dir will call FoFMem   1 times, MxPair=       156
 NAB=    78 NAA=     0 NBB=     0.
 DE(Corr)= -0.73709304     E(CORR)=     -1026.7863799     Delta= 1.95D-06
 NORM(A)=   0.11197063D+01
 Iteration Nr.  13
 **********************
 DD1Dir will call FoFMem   1 times, MxPair=       156
 NAB=    78 NAA=     0 NBB=     0.
 DE(Corr)= -0.73709245     E(CORR)=     -1026.7863793     Delta= 5.91D-07
 NORM(A)=   0.11197041D+01
 Iteration Nr.  14
 **********************
 DD1Dir will call FoFMem   1 times, MxPair=       156
 NAB=    78 NAA=     0 NBB=     0.
 DE(Corr)= -0.73709232     E(CORR)=     -1026.7863792     Delta= 1.30D-07
 NORM(A)=   0.11197026D+01
 Iteration Nr.  15
 **********************
 DD1Dir will call FoFMem   1 times, MxPair=       156
 NAB=    78 NAA=     0 NBB=     0.
 DE(Corr)= -0.73709205     E(CORR)=     -1026.7863789     Delta= 2.69D-07
 NORM(A)=   0.11197017D+01
 Iteration Nr.  16
 **********************
 DD1Dir will call FoFMem   1 times, MxPair=       156
 NAB=    78 NAA=     0 NBB=     0.
 DE(Corr)= -0.73709200     E(CORR)=     -1026.7863788     Delta= 4.52D-08
 NORM(A)=   0.11197010D+01
 Iteration Nr.  17
 **********************
 DD1Dir will call FoFMem   1 times, MxPair=       156
 NAB=    78 NAA=     0 NBB=     0.
 DE(Corr)= -0.73709198     E(CORR)=     -1026.7863788     Delta= 2.13D-08
 NORM(A)=   0.11197005D+01
 Wavefunction amplitudes converged. E(Corr)=     -1026.7863788    
 Largest amplitude= 1.89D-02
 Discarding MO integrals.

 **********************************************************************

            Population analysis using the SCF Density.

 **********************************************************************

 Orbital symmetries:
       Occupied  (B2) (A1) (A1) (B2) (A1) (B2) (A1) (B1) (A2) (A1)
                 (B2) (A1) (A1) (B2) (A1) (A1) (B2) (A1) (B2) (B1)
                 (A2) (B1) (A1) (B2)
       Virtual   (A1) (B1) (B2) (A1) (A1) (B1) (B2) (A1) (A1) (B2)
                 (B1) (A2) (A1) (B2) (B1) (A1) (B2) (A2) (A1) (A1)
                 (B1) (A1) (B2) (A1) (B2) (B1) (A1) (A2) (B2) (B1)
                 (A1) (B2) (B1) (A1) (B1) (A2) (A1) (B2) (B1) (A1)
                 (A1) (B2) (A2) (B1) (B2) (A1) (A2) (B2) (A1) (B1)
                 (A1) (A1) (B2) (B2) (A1) (B1) (A2) (B2) (A1) (A2)
                 (B2) (B1) (A2) (A1) (B2) (B1) (A1) (B2) (A1) (B1)
                 (A1) (B1) (A1) (A2) (B2) (A1) (A2) (B2) (A2) (B2)
                 (A1) (B2) (B1) (A2) (B1) (A1) (A1) (B2) (B1) (B2)
                 (A1) (B1) (A1) (B1) (A1) (B1) (A1) (B2) (A2) (B2)
                 (B2) (A2) (B2) (A1) (A1) (B2) (A1) (B1) (A1) (A2)
                 (B2) (A2) (B2) (B1) (A1) (A1) (B2) (B2) (A2) (A1)
                 (A2) (B1) (A1) (B2) (B1) (A1) (A2) (B2) (A1) (B1)
                 (B1) (A1) (A1) (A2) (B2) (B1) (B2) (A1) (A1) (B1)
                 (A2) (B2) (B1) (B2) (A2) (A1) (A1) (B2) (B2) (A1)
                 (B1) (B2) (A1) (B2) (A1) (B1) (A2) (B2) (A1) (B1)
                 (A1) (B2) (A2) (A1) (B1) (B2) (A1) (A1)
 The electronic state is 1-A1.
 Alpha  occ. eigenvalues -- -104.43721-104.43721 -25.73057 -10.16231 -10.16231
 Alpha  occ. eigenvalues --   -7.62848  -7.62848  -7.62836  -7.62836  -7.62828
 Alpha  occ. eigenvalues --   -7.62828  -2.07005  -0.97610  -0.67681  -0.67535
 Alpha  occ. eigenvalues --   -0.11110  -0.11077  -0.09567  -0.09425  -0.09264
 Alpha  occ. eigenvalues --   -0.08588  -0.07769  -0.06772  -0.06696
 Alpha virt. eigenvalues --    0.15566   0.16230   0.16375   0.18051   0.27129
 Alpha virt. eigenvalues --    0.28108   0.29340   0.30280   0.33697   0.33798
 Alpha virt. eigenvalues --    0.35136   0.36450   0.36901   0.37687   0.37942
 Alpha virt. eigenvalues --    0.38470   0.41751   0.41763   0.44013   0.44788
 Alpha virt. eigenvalues --    0.46556   0.50785   0.52119   0.55534   0.59024
 Alpha virt. eigenvalues --    0.59403   0.60508   0.60626   0.61328   0.61955
 Alpha virt. eigenvalues --    0.62662   0.65973   0.66653   0.69035   0.69648
 Alpha virt. eigenvalues --    0.69954   0.71864   0.74311   0.74598   0.74845
 Alpha virt. eigenvalues --    0.75954   0.77645   0.77983   0.78584   0.78625
 Alpha virt. eigenvalues --    0.80797   0.84321   0.85807   0.88023   0.88517
 Alpha virt. eigenvalues --    0.90590   0.91822   0.93367   1.04626   1.13525
 Alpha virt. eigenvalues --    1.15132   1.15986   1.16843   1.17725   1.21257
 Alpha virt. eigenvalues --    1.22614   1.23317   1.25050   1.25095   1.26110
 Alpha virt. eigenvalues --    1.26583   1.27655   1.27967   1.30205   1.31039
 Alpha virt. eigenvalues --    1.32346   1.33708   1.37670   1.38692   1.40597
 Alpha virt. eigenvalues --    1.44085   1.45723   1.46125   1.47741   1.50233
 Alpha virt. eigenvalues --    1.50585   1.55673   1.55737   1.56609   1.58423
 Alpha virt. eigenvalues --    1.58947   1.59507   1.63523   1.64998   1.65978
 Alpha virt. eigenvalues --    1.67266   1.67576   1.73041   1.78282   1.79884
 Alpha virt. eigenvalues --    1.83278   1.83496   1.87719   1.88388   1.91569
 Alpha virt. eigenvalues --    2.04365   2.08051   2.09402   2.15570   2.26582
 Alpha virt. eigenvalues --    2.44183   2.59557   2.93394   2.94590   2.98567
 Alpha virt. eigenvalues --    2.99258   3.01771   3.03018   3.03446   3.05599
 Alpha virt. eigenvalues --    3.10026   3.14058   3.24794   3.25001   3.31505
 Alpha virt. eigenvalues --    3.39496   3.39631   3.39633   3.42059   3.42781
 Alpha virt. eigenvalues --    3.43748   3.43798   3.45206   3.45529   3.46243
 Alpha virt. eigenvalues --    3.46749   3.47333   3.48651   3.51476   3.51597
 Alpha virt. eigenvalues --    3.51883   3.53494   3.55308   3.57019   3.57893
 Alpha virt. eigenvalues --    3.60716   3.61116   3.62259   3.72476   3.73380
 Alpha virt. eigenvalues --    3.73477   3.79177   3.83055   3.93765   4.55648
 Alpha virt. eigenvalues --    5.84450   5.90520   6.12612   6.96316   7.52761
 Alpha virt. eigenvalues --    9.37561   9.38748   9.39077   9.40461   9.42841
 Alpha virt. eigenvalues --    9.45014   9.46525   9.88052   9.92053   9.95137
 Alpha virt. eigenvalues --    9.99463  10.00228  12.00268
          Condensed to atoms (all electrons):
               1          2          3          4
     1  F   10.087526  -0.042286  -0.007797  -0.042286
     2  Cl  -0.042286  17.752854   0.129540  -0.020369
     3  Li  -0.007797   0.129540   2.114082   0.129540
     4  Cl  -0.042286  -0.020369   0.129540  17.752854
 Mulliken charges:
               1
     1  F   -0.995157
     2  Cl  -0.819739
     3  Li   0.634635
     4  Cl  -0.819739
 Sum of Mulliken charges =  -2.00000
 Mulliken charges with hydrogens summed into heavy atoms:
               1
     1  F   -0.995157
     2  Cl  -0.819739
     3  Li   0.634635
     4  Cl  -0.819739
 Electronic spatial extent (au):  <R**2>=            855.2255
 Charge=             -2.0000 electrons
 Dipole moment (field-independent basis, Debye):
    X=              0.0000    Y=             -0.0000    Z=             -5.1269  Tot=              5.1269
 Quadrupole moment (field-independent basis, Debye-Ang):
   XX=            -40.7955   YY=            -81.1747   ZZ=            -63.1288
   XY=             -0.0000   XZ=             -0.0000   YZ=             -0.0000
 Traceless Quadrupole moment (field-independent basis, Debye-Ang):
   XX=             20.9042   YY=            -19.4751   ZZ=             -1.4291
   XY=             -0.0000   XZ=             -0.0000   YZ=             -0.0000
 Octapole moment (field-independent basis, Debye-Ang**2):
  XXX=              0.0000  YYY=             -0.0000  ZZZ=            -26.0334  XYY=              0.0000
  XXY=             -0.0000  XXZ=              3.9610  XZZ=              0.0000  YZZ=              0.0000
  YYZ=             31.5495  XYZ=              0.0000
 Hexadecapole moment (field-independent basis, Debye-Ang**3):
 XXXX=            -60.6671 YYYY=          -1150.5911 ZZZZ=           -373.7456 XXXY=             -0.0000
 XXXZ=             -0.0000 YYYX=             -0.0000 YYYZ=              0.0000 ZZZX=             -0.0000
 ZZZY=             -0.0000 XXYY=           -172.5495 XXZZ=            -58.8694 YYZZ=           -227.0964
 XXYZ=             -0.0000 YYXZ=             -0.0000 ZZXY=             -0.0000
 N-N= 1.158752109296D+02 E-N=-2.698193211526D+03  KE= 1.026145916131D+03
 Symmetry A1   KE= 5.095854459715D+02
 Symmetry A2   KE= 4.534187563537D+01
 Symmetry B1   KE= 5.095406525958D+01
 Symmetry B2   KE= 4.202645292642D+02
 1\1\GINC-HELIOS\SP\RCCSD-FC\Aug-CC-pVTZ\Cl2F1Li1(2-)\POHL\30-May-2025\
 0\\# CCSD/aug-cc-pVTZ SP\\Single-point energy of X- + Y- at fixed dist
 ance R\\-2,1\F,0,0.,0.,2.5\Cl,0,-2.14,0.,0.\Li,0,0.,0.,0.\Cl,0,2.14,0.
 ,0.\\Version=EM64L-G16RevB.01\State=1-A1\HF=-1026.0492868\MP2=-1026.76
 24955\MP3=-1026.7853952\MP4D=-1026.799658\MP4DQ=-1026.7843011\MP4SDQ=-
 1026.7902652\CCSD=-1026.7863788\RMSD=7.848e-09\PG=C02V [C2(Li1F1),SGV(
 Cl2)]\\@


 ALL OUR THINKING ABOUT NATURE MUST NECESSARILY MOVE IN CIRCLES OR SPIRALS;
 FOR WE CAN ONLY UNDERSTAND NATURE IF WE THINK ABOUT HER, AND WE CAN ONLY
 THINK BECAUSE OUR BRAIN IS BUILT IN ACCORDANCE WITH NATURE'S LAWS.

                                             -- TIMOTHY FERRIS, "GALAXIES"
 Job cpu time:       0 days  0 hours 10 minutes 18.8 seconds.
 Elapsed time:       0 days  0 hours  1 minutes  2.2 seconds.
 File lengths (MBytes):  RWF=   1162 Int=      0 D2E=      0 Chk=      4 Scr=      1
 Normal termination of Gaussian 16 at Fri May 30 10:23:48 2025.
