 Entering Gaussian System, Link 0=g16
 Initial command:
 /opt/g16/l1.exe "/home/pohl/scratches/g16/Gau-2119453.inp" -scrdir="/home/pohl/scratches/g16/"
 Entering Link 1 = /opt/g16/l1.exe PID=   2119455.
  
 Copyright (c) 1988-2017, Gaussian, Inc.  All Rights Reserved.
  
 This is part of the Gaussian(R) 16 program.  It is based on
 the Gaussian(R) 09 system (copyright 2009, Gaussian, Inc.),
 the Gaussian(R) 03 system (copyright 2003, Gaussian, Inc.),
 the Gaussian(R) 98 system (copyright 1998, Gaussian, Inc.),
 the Gaussian(R) 94 system (copyright 1995, Gaussian, Inc.),
 the Gaussian 92(TM) system (copyright 1992, Gaussian, Inc.),
 the Gaussian 90(TM) system (copyright 1990, Gaussian, Inc.),
 the Gaussian 88(TM) system (copyright 1988, Gaussian, Inc.),
 the Gaussian 86(TM) system (copyright 1986, Carnegie Mellon
 University), and the Gaussian 82(TM) system (copyright 1983,
 Carnegie Mellon University). Gaussian is a federally registered
 trademark of Gaussian, Inc.
  
 This software contains proprietary and confidential information,
 including trade secrets, belonging to Gaussian, Inc.
  
 This software is provided under written license and may be
 used, copied, transmitted, or stored only in accord with that
 written license.
  
 The following legend is applicable only to US Government
 contracts under FAR:
  
                    RESTRICTED RIGHTS LEGEND
  
 Use, reproduction and disclosure by the US Government is
 subject to restrictions as set forth in subparagraphs (a)
 and (c) of the Commercial Computer Software - Restricted
 Rights clause in FAR 52.227-19.
  
 Gaussian, Inc.
 340 Quinnipiac St., Bldg. 40, Wallingford CT 06492
  
  
 ---------------------------------------------------------------
 Warning -- This program may not be used in any manner that
 competes with the business of Gaussian, Inc. or will provide
 assistance to any competitor of Gaussian, Inc.  The licensee
 of this program is prohibited from giving any competitor of
 Gaussian, Inc. access to this program.  By using this program,
 the user acknowledges that Gaussian, Inc. is engaged in the
 business of creating and licensing software in the field of
 computational chemistry and represents and warrants to the
 licensee that it is not a competitor of Gaussian, Inc. and that
 it will not use this program in any manner prohibited above.
 ---------------------------------------------------------------
  

 Cite this work as:
 Gaussian 16, Revision B.01,
 M. J. Frisch, G. W. Trucks, H. B. Schlegel, G. E. Scuseria, 
 M. A. Robb, J. R. Cheeseman, G. Scalmani, V. Barone, 
 G. A. Petersson, H. Nakatsuji, X. Li, M. Caricato, A. V. Marenich, 
 J. Bloino, B. G. Janesko, R. Gomperts, B. Mennucci, H. P. Hratchian, 
 J. V. Ortiz, A. F. Izmaylov, J. L. Sonnenberg, D. Williams-Young, 
 F. Ding, F. Lipparini, F. Egidi, J. Goings, B. Peng, A. Petrone, 
 T. Henderson, D. Ranasinghe, V. G. Zakrzewski, J. Gao, N. Rega, 
 G. Zheng, W. Liang, M. Hada, M. Ehara, K. Toyota, R. Fukuda, 
 J. Hasegawa, M. Ishida, T. Nakajima, Y. Honda, O. Kitao, H. Nakai, 
 T. Vreven, K. Throssell, J. A. Montgomery, Jr., J. E. Peralta, 
 F. Ogliaro, M. J. Bearpark, J. J. Heyd, E. N. Brothers, K. N. Kudin, 
 V. N. Staroverov, T. A. Keith, R. Kobayashi, J. Normand, 
 K. Raghavachari, A. P. Rendell, J. C. Burant, S. S. Iyengar, 
 J. Tomasi, M. Cossi, J. M. Millam, M. Klene, C. Adamo, R. Cammi, 
 J. W. Ochterski, R. L. Martin, K. Morokuma, O. Farkas, 
 J. B. Foresman, and D. J. Fox, Gaussian, Inc., Wallingford CT, 2016.
 
 ******************************************
 Gaussian 16:  EM64L-G16RevB.01 20-Dec-2017
                30-May-2025 
 ******************************************
 %mem=30GB
 %nprocshared=10
 Will use up to   10 processors via shared memory.
 ---------------------
 # CCSD/aug-cc-pVTZ SP
 ---------------------
 1/38=1,172=1/1;
 2/12=2,17=6,18=5,40=1/2;
 3/5=16,6=1,7=10,11=9,25=1,30=1/1,2,3;
 4//1;
 5/5=2,38=5/2;
 8/6=4,9=120000,10=1/1,4;
 9/5=7/13;
 6/7=2,8=2,9=2,10=2/1;
 99/5=1,9=1/99;
 --------------------------------------------------
 Single-point energy of X- + Y- at fixed distance R
 --------------------------------------------------
 Symbolic Z-matrix:
 Charge = -2 Multiplicity = 1
 F                     0.        0.        3.2 
 Cl                   -2.14      0.        0. 
 Li                    0.        0.        0. 
 Cl                    2.14      0.        0. 
 
                          Input orientation:                          
 ---------------------------------------------------------------------
 Center     Atomic      Atomic             Coordinates (Angstroms)
 Number     Number       Type             X           Y           Z
 ---------------------------------------------------------------------
      1          9           0        0.000000    0.000000    3.200000
      2         17           0       -2.140000    0.000000    0.000000
      3          3           0        0.000000    0.000000    0.000000
      4         17           0        2.140000    0.000000    0.000000
 ---------------------------------------------------------------------
                    Distance matrix (angstroms):
                    1          2          3          4
     1  F    0.000000
     2  Cl   3.849623   0.000000
     3  Li   3.200000   2.140000   0.000000
     4  Cl   3.849623   4.280000   2.140000   0.000000
 Stoichiometry    Cl2FLi(2-)
 Framework group  C2V[C2(LiF),SGV(Cl2)]
 Deg. of freedom     3
 Full point group                 C2V     NOp   4
 Largest Abelian subgroup         C2V     NOp   4
 Largest concise Abelian subgroup C2      NOp   2
                         Standard orientation:                         
 ---------------------------------------------------------------------
 Center     Atomic      Atomic             Coordinates (Angstroms)
 Number     Number       Type             X           Y           Z
 ---------------------------------------------------------------------
      1          9           0        0.000000    0.000000    2.573913
      2         17           0       -0.000000    2.140000   -0.626087
      3          3           0       -0.000000    0.000000   -0.626087
      4         17           0       -0.000000   -2.140000   -0.626087
 ---------------------------------------------------------------------
 Rotational constants (GHZ):           3.2391057           1.5778956           1.0610275
 Standard basis: Aug-CC-pVTZ (5D, 7F)
 There are    88 symmetry adapted cartesian basis functions of A1  symmetry.
 There are    29 symmetry adapted cartesian basis functions of A2  symmetry.
 There are    45 symmetry adapted cartesian basis functions of B1  symmetry.
 There are    66 symmetry adapted cartesian basis functions of B2  symmetry.
 There are    71 symmetry adapted basis functions of A1  symmetry.
 There are    27 symmetry adapted basis functions of A2  symmetry.
 There are    39 symmetry adapted basis functions of B1  symmetry.
 There are    55 symmetry adapted basis functions of B2  symmetry.
   192 basis functions,   374 primitive gaussians,   228 cartesian basis functions
    24 alpha electrons       24 beta electrons
       nuclear repulsion energy       107.4826182438 Hartrees.
 NAtoms=    4 NActive=    4 NUniq=    3 SFac= 1.78D+00 NAtFMM=   60 NAOKFM=F Big=F
 Integral buffers will be    131072 words long.
 Raffenetti 1 integral format.
 Two-electron integral symmetry is turned on.
 One-electron integrals computed using PRISM.
 NBasis=   192 RedAO= T EigKep=  1.09D-04  NBF=    71    27    39    55
 NBsUse=   192 1.00D-06 EigRej= -1.00D+00 NBFU=    71    27    39    55
 ExpMin= 7.59D-03 ExpMax= 4.56D+05 ExpMxC= 1.44D+03 IAcc=3 IRadAn=         5 AccDes= 0.00D+00
 Harris functional with IExCor=  205 and IRadAn=       5 diagonalized for initial guess.
 HarFok:  IExCor=  205 AccDes= 0.00D+00 IRadAn=         5 IDoV= 1 UseB2=F ITyADJ=14
 ICtDFT=  3500011 ScaDFX=  1.000000  1.000000  1.000000  1.000000
 FoFCou: FMM=F IPFlag=           0 FMFlag=      100000 FMFlg1=           0
         NFxFlg=           0 DoJE=T BraDBF=F KetDBF=T FulRan=T
         wScrn=  0.000000 ICntrl=       500 IOpCl=  0 I1Cent=   200000004 NGrid=           0
         NMat0=    1 NMatS0=      1 NMatT0=    0 NMatD0=    1 NMtDS0=    0 NMtDT0=    0
 Petite list used in FoFCou.
 Initial guess orbital symmetries:
       Occupied  (A1) (B2) (A1) (A1) (B2) (B2) (A1) (A1) (B1) (B2)
                 (A2) (A1) (A1) (B2) (A1) (A1) (B2) (B1) (B2) (A1)
                 (B1) (A1) (A2) (B2)
       Virtual   (A1) (B1) (A1) (B2) (A1) (A1) (B1) (B1) (B2) (A1)
                 (A1) (B2) (A2) (A1) (B1) (B2) (A1) (A1) (B1) (B2)
                 (A2) (A1) (B2) (A1) (B2) (A2) (B1) (B1) (A1) (B2)
                 (A1) (B2) (A2) (B2) (A1) (B1) (B2) (A1) (B1) (A1)
                 (B1) (A1) (B2) (A2) (A1) (B1) (A1) (B1) (A1) (A2)
                 (B2) (B2) (A1) (B2) (B2) (A2) (A1) (B1) (A1) (A2)
                 (B2) (B1) (A1) (B2) (A2) (A1) (B2) (A1) (A1) (B1)
                 (A2) (B1) (B1) (A1) (A1) (B2) (B1) (B2) (A2) (B2)
                 (A2) (A1) (B2) (A1) (B1) (A2) (B2) (A1) (B2) (B1)
                 (A1) (B1) (A1) (B1) (A1) (B2) (A1) (B1) (A1) (A2)
                 (B2) (B2) (A2) (B2) (A1) (A1) (B2) (B1) (A1) (B2)
                 (A2) (A2) (B2) (B1) (A1) (A1) (B2) (A2) (B2) (A2)
                 (A1) (B1) (B2) (A1) (B1) (B2) (A2) (A1) (B1) (A1)
                 (B1) (A1) (B2) (A1) (A2) (B1) (A1) (B2) (B2) (B1)
                 (A1) (A1) (B1) (A1) (A2) (B2) (A2) (B2) (B2) (A1)
                 (B1) (B2) (A1) (B2) (A1) (B1) (B2) (A2) (B1) (A1)
                 (B2) (A1) (A2) (A1) (B1) (B2) (A1) (A1)
 The electronic state of the initial guess is 1-A1.
 Keep R1 ints in memory in symmetry-blocked form, NReq=215097955.
 Requested convergence on RMS density matrix=1.00D-08 within 128 cycles.
 Requested convergence on MAX density matrix=1.00D-06.
 Requested convergence on             energy=1.00D-06.
 No special actions if energy rises.
 SCF Done:  E(RHF) =  -1026.05293180     A.U. after   11 cycles
            NFock= 11  Conv=0.69D-08     -V/T= 1.9999
 ExpMin= 7.59D-03 ExpMax= 4.56D+05 ExpMxC= 1.44D+03 IAcc=3 IRadAn=         5 AccDes= 0.00D+00
 HarFok:  IExCor=  205 AccDes= 0.00D+00 IRadAn=         5 IDoV=-2 UseB2=F ITyADJ=14
 ICtDFT= 12500011 ScaDFX=  1.000000  1.000000  1.000000  1.000000
 Range of M.O.s used for correlation:    13   192
 NBasis=   192 NAE=    24 NBE=    24 NFC=    12 NFV=     0
 NROrb=    180 NOA=    12 NOB=    12 NVA=   168 NVB=   168

 **** Warning!!: The largest alpha MO coefficient is  0.34455177D+02

 Semi-Direct transformation.
 ModeAB=           4 MOrb=            12 LenV=    4025513765
 LASXX=      8444399 LTotXX=     8444399 LenRXX=    17045430
 LTotAB=     8601031 MaxLAS=    35313840 LenRXY=           0
 NonZer=    25489829 LenScr=    39014400 LnRSAI=    35313840
 LnScr1=    53733888 LExtra=           0 Total=    145107558
 MaxDsk=          -1 SrtSym=           T ITran=            4
 JobTyp=0 Pass  1:  I=   1 to  12.
 (rs|ai) integrals will be sorted in core.
 Spin components of T(2) and E(2):
     alpha-alpha T2 =       0.3073949679D-01 E2=     -0.9130270246D-01
     alpha-beta  T2 =       0.1624073625D+00 E2=     -0.5290774085D+00
     beta-beta   T2 =       0.3073949679D-01 E2=     -0.9130270246D-01
 ANorm=    0.1106293974D+01
 E2 =    -0.7116828135D+00 EUMP2 =    -0.10267646146110D+04
 Keep R2 and R3 ints in memory in symmetry-blocked form, NReq=215104941.
 CIDS: In Core Option IDoMem=           1.
 Iterations=  50 Convergence= 0.100D-06
 Produce multiple copies of IABC intergrals
 Iteration Nr.   1
 **********************
 DD1Dir will call FoFMem   1 times, MxPair=       156
 NAB=    78 NAA=     0 NBB=     0.
 MP4(R+Q)=  0.15097648D-01
 E3=       -0.22470226D-01        EUMP3=      -0.10267870848D+04
 E4(DQ)=    0.62632497D-03        UMP4(DQ)=   -0.10267864585D+04
 E4(SDQ)=  -0.54389792D-02        UMP4(SDQ)=  -0.10267925238D+04
 DE(Corr)= -0.71850712     E(Corr)=     -1026.7714389    
 NORM(A)=   0.11114296D+01
 Iteration Nr.   2
 **********************
 DD1Dir will call FoFMem   1 times, MxPair=       156
 NAB=    78 NAA=     0 NBB=     0.
 DE(Corr)= -0.73535098     E(CORR)=     -1026.7882828     Delta=-1.68D-02
 NORM(A)=   0.11164198D+01
 Iteration Nr.   3
 **********************
 DD1Dir will call FoFMem   1 times, MxPair=       156
 NAB=    78 NAA=     0 NBB=     0.
 DE(Corr)= -0.73367329     E(CORR)=     -1026.7866051     Delta= 1.68D-03
 NORM(A)=   0.11183213D+01
 Iteration Nr.   4
 **********************
 DD1Dir will call FoFMem   1 times, MxPair=       156
 NAB=    78 NAA=     0 NBB=     0.
 DE(Corr)= -0.73529312     E(CORR)=     -1026.7882249     Delta=-1.62D-03
 NORM(A)=   0.11188980D+01
 Iteration Nr.   5
 **********************
 DD1Dir will call FoFMem   1 times, MxPair=       156
 NAB=    78 NAA=     0 NBB=     0.
 DE(Corr)= -0.73545146     E(CORR)=     -1026.7883833     Delta=-1.58D-04
 NORM(A)=   0.11192105D+01
 Iteration Nr.   6
 **********************
 DD1Dir will call FoFMem   1 times, MxPair=       156
 NAB=    78 NAA=     0 NBB=     0.
 DE(Corr)= -0.73547421     E(CORR)=     -1026.7884060     Delta=-2.27D-05
 NORM(A)=   0.11193623D+01
 Iteration Nr.   7
 **********************
 DD1Dir will call FoFMem   1 times, MxPair=       156
 NAB=    78 NAA=     0 NBB=     0.
 DE(Corr)= -0.73547581     E(CORR)=     -1026.7884076     Delta=-1.60D-06
 NORM(A)=   0.11194121D+01
 Iteration Nr.   8
 **********************
 DD1Dir will call FoFMem   1 times, MxPair=       156
 NAB=    78 NAA=     0 NBB=     0.
 DE(Corr)= -0.73549072     E(CORR)=     -1026.7884225     Delta=-1.49D-05
 NORM(A)=   0.11194346D+01
 Iteration Nr.   9
 **********************
 DD1Dir will call FoFMem   1 times, MxPair=       156
 NAB=    78 NAA=     0 NBB=     0.
 DE(Corr)= -0.73547787     E(CORR)=     -1026.7884097     Delta= 1.29D-05
 NORM(A)=   0.11194564D+01
 Iteration Nr.  10
 **********************
 DD1Dir will call FoFMem   1 times, MxPair=       156
 NAB=    78 NAA=     0 NBB=     0.
 DE(Corr)= -0.73547977     E(CORR)=     -1026.7884116     Delta=-1.90D-06
 NORM(A)=   0.11194561D+01
 Iteration Nr.  11
 **********************
 DD1Dir will call FoFMem   1 times, MxPair=       156
 NAB=    78 NAA=     0 NBB=     0.
 DE(Corr)= -0.73547896     E(CORR)=     -1026.7884108     Delta= 8.08D-07
 NORM(A)=   0.11194555D+01
 Iteration Nr.  12
 **********************
 DD1Dir will call FoFMem   1 times, MxPair=       156
 NAB=    78 NAA=     0 NBB=     0.
 DE(Corr)= -0.73547692     E(CORR)=     -1026.7884087     Delta= 2.04D-06
 NORM(A)=   0.11194535D+01
 Iteration Nr.  13
 **********************
 DD1Dir will call FoFMem   1 times, MxPair=       156
 NAB=    78 NAA=     0 NBB=     0.
 DE(Corr)= -0.73547626     E(CORR)=     -1026.7884081     Delta= 6.61D-07
 NORM(A)=   0.11194511D+01
 Iteration Nr.  14
 **********************
 DD1Dir will call FoFMem   1 times, MxPair=       156
 NAB=    78 NAA=     0 NBB=     0.
 DE(Corr)= -0.73547620     E(CORR)=     -1026.7884080     Delta= 6.37D-08
 NORM(A)=   0.11194495D+01
 Iteration Nr.  15
 **********************
 DD1Dir will call FoFMem   1 times, MxPair=       156
 NAB=    78 NAA=     0 NBB=     0.
 DE(Corr)= -0.73547593     E(CORR)=     -1026.7884077     Delta= 2.68D-07
 NORM(A)=   0.11194486D+01
 Iteration Nr.  16
 **********************
 DD1Dir will call FoFMem   1 times, MxPair=       156
 NAB=    78 NAA=     0 NBB=     0.
 DE(Corr)= -0.73547585     E(CORR)=     -1026.7884076     Delta= 7.63D-08
 NORM(A)=   0.11194478D+01
 Iteration Nr.  17
 **********************
 DD1Dir will call FoFMem   1 times, MxPair=       156
 NAB=    78 NAA=     0 NBB=     0.
 DE(Corr)= -0.73547583     E(CORR)=     -1026.7884076     Delta= 2.29D-08
 NORM(A)=   0.11194473D+01
 Iteration Nr.  18
 **********************
 DD1Dir will call FoFMem   1 times, MxPair=       156
 NAB=    78 NAA=     0 NBB=     0.
 DE(Corr)= -0.73547580     E(CORR)=     -1026.7884076     Delta= 3.14D-08
 NORM(A)=   0.11194470D+01
 Wavefunction amplitudes converged. E(Corr)=     -1026.7884076    
 Largest amplitude= 2.61D-02
 Discarding MO integrals.

 **********************************************************************

            Population analysis using the SCF Density.

 **********************************************************************

 Orbital symmetries:
       Occupied  (B2) (A1) (A1) (B2) (A1) (B2) (A1) (B1) (A2) (A1)
                 (B2) (A1) (A1) (B2) (A1) (B2) (A1) (B1) (A1) (A2)
                 (B2) (B1) (B2) (A1)
       Virtual   (A1) (B1) (B2) (A1) (A1) (B1) (B2) (A1) (A1) (B2)
                 (B1) (A2) (A1) (B1) (B2) (A1) (A2) (B2) (A1) (A1)
                 (B1) (A1) (B2) (A1) (B2) (B1) (A2) (A1) (B2) (B1)
                 (A1) (B2) (B1) (A1) (B1) (A2) (A1) (B2) (B1) (A1)
                 (A1) (B2) (B1) (A2) (B2) (A1) (A2) (A1) (B2) (A1)
                 (B1) (B2) (A1) (B2) (A1) (B1) (A2) (B2) (A1) (A2)
                 (B2) (B1) (A1) (A2) (B2) (B1) (B2) (A1) (A1) (B1)
                 (A1) (A1) (B1) (A2) (B2) (A1) (A2) (B2) (B1) (A2)
                 (A1) (B2) (B2) (A2) (A1) (B1) (A1) (B2) (B2) (B1)
                 (A1) (B1) (A1) (B1) (A1) (B2) (B1) (A1) (A2) (B2)
                 (A1) (B2) (A2) (B2) (A1) (B2) (A1) (B1) (A1) (A2)
                 (B2) (A2) (B2) (B1) (A1) (A1) (B2) (A2) (B2) (A1)
                 (A1) (B1) (A2) (B2) (A1) (A2) (A1) (B1) (B2) (B1)
                 (B1) (A1) (A2) (B2) (A1) (B1) (A1) (B2) (B1) (A1)
                 (B2) (B1) (A2) (A1) (B2) (A1) (A2) (B2) (B2) (A1)
                 (B1) (B2) (A1) (B2) (A1) (B1) (B2) (A2) (B1) (A1)
                 (B2) (A1) (A2) (A1) (B1) (B2) (A1) (A1)
 The electronic state is 1-A1.
 Alpha  occ. eigenvalues -- -104.45697-104.45697 -25.72931 -10.18208 -10.18208
 Alpha  occ. eigenvalues --   -7.64828  -7.64828  -7.64815  -7.64815  -7.64808
 Alpha  occ. eigenvalues --   -7.64808  -2.10283  -0.97206  -0.69699  -0.69554
 Alpha  occ. eigenvalues --   -0.12988  -0.12685  -0.11016  -0.10821  -0.10521
 Alpha  occ. eigenvalues --   -0.10339  -0.07665  -0.07593  -0.07530
 Alpha virt. eigenvalues --    0.15248   0.16129   0.16275   0.18401   0.26596
 Alpha virt. eigenvalues --    0.27419   0.28698   0.30061   0.32921   0.33131
 Alpha virt. eigenvalues --    0.35015   0.35694   0.37204   0.37242   0.37746
 Alpha virt. eigenvalues --    0.38239   0.41090   0.41651   0.43543   0.44279
 Alpha virt. eigenvalues --    0.44673   0.50237   0.50933   0.52716   0.57711
 Alpha virt. eigenvalues --    0.58185   0.59318   0.59329   0.60111   0.60498
 Alpha virt. eigenvalues --    0.61763   0.64479   0.64480   0.65631   0.67006
 Alpha virt. eigenvalues --    0.68149   0.69256   0.71376   0.73021   0.73310
 Alpha virt. eigenvalues --    0.74267   0.74923   0.76445   0.76542   0.77401
 Alpha virt. eigenvalues --    0.78316   0.83062   0.83442   0.84580   0.86183
 Alpha virt. eigenvalues --    0.86576   0.92031   0.95337   1.02924   1.11984
 Alpha virt. eigenvalues --    1.13284   1.14027   1.15650   1.16822   1.19027
 Alpha virt. eigenvalues --    1.20149   1.21264   1.21749   1.23071   1.24553
 Alpha virt. eigenvalues --    1.24709   1.25551   1.25944   1.26516   1.26995
 Alpha virt. eigenvalues --    1.28613   1.30834   1.32265   1.36315   1.41018
 Alpha virt. eigenvalues --    1.41080   1.44141   1.44762   1.45174   1.45705
 Alpha virt. eigenvalues --    1.46491   1.47826   1.50877   1.52435   1.53488
 Alpha virt. eigenvalues --    1.56936   1.56968   1.58118   1.62463   1.63090
 Alpha virt. eigenvalues --    1.63447   1.65384   1.66584   1.68908   1.71768
 Alpha virt. eigenvalues --    1.73067   1.79777   1.81367   1.85864   1.89955
 Alpha virt. eigenvalues --    1.96297   2.00221   2.06026   2.07057   2.23669
 Alpha virt. eigenvalues --    2.41848   2.44832   2.91509   2.92251   2.96945
 Alpha virt. eigenvalues --    2.96996   2.99903   3.00362   3.01557   3.03071
 Alpha virt. eigenvalues --    3.08117   3.12199   3.23129   3.25307   3.35876
 Alpha virt. eigenvalues --    3.37739   3.37893   3.39831   3.40126   3.41501
 Alpha virt. eigenvalues --    3.42297   3.42860   3.43178   3.43352   3.43735
 Alpha virt. eigenvalues --    3.44130   3.44403   3.44592   3.44661   3.45210
 Alpha virt. eigenvalues --    3.46775   3.49188   3.50686   3.50820   3.51360
 Alpha virt. eigenvalues --    3.55888   3.56177   3.58856   3.58884   3.60585
 Alpha virt. eigenvalues --    3.63435   3.71410   3.72723   3.90510   4.49704
 Alpha virt. eigenvalues --    5.80757   5.84815   5.92312   6.92838   7.49815
 Alpha virt. eigenvalues --    9.37344   9.37536   9.37667   9.38056   9.38152
 Alpha virt. eigenvalues --    9.39102   9.40081   9.86295   9.87634   9.90164
 Alpha virt. eigenvalues --    9.93344   9.96100  11.72341
          Condensed to atoms (all electrons):
               1          2          3          4
     1  F   10.046143  -0.008546  -0.016910  -0.008546
     2  Cl  -0.008546  17.693870   0.138998  -0.020793
     3  Li  -0.016910   0.138998   2.119717   0.138998
     4  Cl  -0.008546  -0.020793   0.138998  17.693870
 Mulliken charges:
               1
     1  F   -1.012141
     2  Cl  -0.803528
     3  Li   0.619197
     4  Cl  -0.803528
 Sum of Mulliken charges =  -2.00000
 Mulliken charges with hydrogens summed into heavy atoms:
               1
     1  F   -1.012141
     2  Cl  -0.803528
     3  Li   0.619197
     4  Cl  -0.803528
 Electronic spatial extent (au):  <R**2>=            966.2927
 Charge=             -2.0000 electrons
 Dipole moment (field-independent basis, Debye):
    X=              0.0000    Y=              0.0000    Z=             -7.7188  Tot=              7.7188
 Quadrupole moment (field-independent basis, Debye-Ang):
   XX=            -40.5765   YY=            -78.4208   ZZ=            -76.7545
   XY=             -0.0000   XZ=             -0.0000   YZ=              0.0000
 Traceless Quadrupole moment (field-independent basis, Debye-Ang):
   XX=             24.6741   YY=            -13.1702   ZZ=            -11.5039
   XY=             -0.0000   XZ=             -0.0000   YZ=              0.0000
 Octapole moment (field-independent basis, Debye-Ang**2):
  XXX=              0.0000  YYY=              0.0000  ZZZ=            -70.2990  XYY=              0.0000
  XXY=             -0.0000  XXZ=              3.8562  XZZ=              0.0000  YZZ=              0.0000
  YYZ=             34.0213  XYZ=              0.0000
 Hexadecapole moment (field-independent basis, Debye-Ang**3):
 XXXX=            -59.1036 YYYY=          -1109.2238 ZZZZ=           -657.8446 XXXY=             -0.0000
 XXXZ=             -0.0000 YYYX=             -0.0000 YYYZ=             -0.0000 ZZZX=             -0.0000
 ZZZY=             -0.0000 XXYY=           -168.6854 XXZZ=            -82.5203 YYZZ=           -252.9825
 XXYZ=             -0.0000 YYXZ=             -0.0000 ZZXY=             -0.0000
 N-N= 1.074826182438D+02 E-N=-2.680651935438D+03  KE= 1.026131697954D+03
 Symmetry A1   KE= 5.095968182947D+02
 Symmetry A2   KE= 4.536042737577D+01
 Symmetry B1   KE= 5.096462143418D+01
 Symmetry B2   KE= 4.202098308498D+02
 1\1\GINC-HELIOS\SP\RCCSD-FC\Aug-CC-pVTZ\Cl2F1Li1(2-)\POHL\30-May-2025\
 0\\# CCSD/aug-cc-pVTZ SP\\Single-point energy of X- + Y- at fixed dist
 ance R\\-2,1\F,0,0.,0.,3.2\Cl,0,-2.14,0.,0.\Li,0,0.,0.,0.\Cl,0,2.14,0.
 ,0.\\Version=EM64L-G16RevB.01\State=1-A1\HF=-1026.0529318\MP2=-1026.76
 46146\MP3=-1026.7870848\MP4D=-1026.8015562\MP4DQ=-1026.7864585\MP4SDQ=
 -1026.7925238\CCSD=-1026.7884076\RMSD=6.938e-09\PG=C02V [C2(Li1F1),SGV
 (Cl2)]\\@


 The theorems and results in mathematical physics are
 not theorems and results about Nature, but about our
 description of it.
                   --Gerard 't Hooft
 Job cpu time:       0 days  0 hours 10 minutes 42.0 seconds.
 Elapsed time:       0 days  0 hours  1 minutes  4.5 seconds.
 File lengths (MBytes):  RWF=   1156 Int=      0 D2E=      0 Chk=      4 Scr=      1
 Normal termination of Gaussian 16 at Fri May 30 10:26:57 2025.
