 Entering Gaussian System, Link 0=g16
 Initial command:
 /opt/g16/l1.exe "/home/pohl/scratches/g16/Gau-2119584.inp" -scrdir="/home/pohl/scratches/g16/"
 Entering Link 1 = /opt/g16/l1.exe PID=   2119586.
  
 Copyright (c) 1988-2017, Gaussian, Inc.  All Rights Reserved.
  
 This is part of the Gaussian(R) 16 program.  It is based on
 the Gaussian(R) 09 system (copyright 2009, Gaussian, Inc.),
 the Gaussian(R) 03 system (copyright 2003, Gaussian, Inc.),
 the Gaussian(R) 98 system (copyright 1998, Gaussian, Inc.),
 the Gaussian(R) 94 system (copyright 1995, Gaussian, Inc.),
 the Gaussian 92(TM) system (copyright 1992, Gaussian, Inc.),
 the Gaussian 90(TM) system (copyright 1990, Gaussian, Inc.),
 the Gaussian 88(TM) system (copyright 1988, Gaussian, Inc.),
 the Gaussian 86(TM) system (copyright 1986, Carnegie Mellon
 University), and the Gaussian 82(TM) system (copyright 1983,
 Carnegie Mellon University). Gaussian is a federally registered
 trademark of Gaussian, Inc.
  
 This software contains proprietary and confidential information,
 including trade secrets, belonging to Gaussian, Inc.
  
 This software is provided under written license and may be
 used, copied, transmitted, or stored only in accord with that
 written license.
  
 The following legend is applicable only to US Government
 contracts under FAR:
  
                    RESTRICTED RIGHTS LEGEND
  
 Use, reproduction and disclosure by the US Government is
 subject to restrictions as set forth in subparagraphs (a)
 and (c) of the Commercial Computer Software - Restricted
 Rights clause in FAR 52.227-19.
  
 Gaussian, Inc.
 340 Quinnipiac St., Bldg. 40, Wallingford CT 06492
  
  
 ---------------------------------------------------------------
 Warning -- This program may not be used in any manner that
 competes with the business of Gaussian, Inc. or will provide
 assistance to any competitor of Gaussian, Inc.  The licensee
 of this program is prohibited from giving any competitor of
 Gaussian, Inc. access to this program.  By using this program,
 the user acknowledges that Gaussian, Inc. is engaged in the
 business of creating and licensing software in the field of
 computational chemistry and represents and warrants to the
 licensee that it is not a competitor of Gaussian, Inc. and that
 it will not use this program in any manner prohibited above.
 ---------------------------------------------------------------
  

 Cite this work as:
 Gaussian 16, Revision B.01,
 M. J. Frisch, G. W. Trucks, H. B. Schlegel, G. E. Scuseria, 
 M. A. Robb, J. R. Cheeseman, G. Scalmani, V. Barone, 
 G. A. Petersson, H. Nakatsuji, X. Li, M. Caricato, A. V. Marenich, 
 J. Bloino, B. G. Janesko, R. Gomperts, B. Mennucci, H. P. Hratchian, 
 J. V. Ortiz, A. F. Izmaylov, J. L. Sonnenberg, D. Williams-Young, 
 F. Ding, F. Lipparini, F. Egidi, J. Goings, B. Peng, A. Petrone, 
 T. Henderson, D. Ranasinghe, V. G. Zakrzewski, J. Gao, N. Rega, 
 G. Zheng, W. Liang, M. Hada, M. Ehara, K. Toyota, R. Fukuda, 
 J. Hasegawa, M. Ishida, T. Nakajima, Y. Honda, O. Kitao, H. Nakai, 
 T. Vreven, K. Throssell, J. A. Montgomery, Jr., J. E. Peralta, 
 F. Ogliaro, M. J. Bearpark, J. J. Heyd, E. N. Brothers, K. N. Kudin, 
 V. N. Staroverov, T. A. Keith, R. Kobayashi, J. Normand, 
 K. Raghavachari, A. P. Rendell, J. C. Burant, S. S. Iyengar, 
 J. Tomasi, M. Cossi, J. M. Millam, M. Klene, C. Adamo, R. Cammi, 
 J. W. Ochterski, R. L. Martin, K. Morokuma, O. Farkas, 
 J. B. Foresman, and D. J. Fox, Gaussian, Inc., Wallingford CT, 2016.
 
 ******************************************
 Gaussian 16:  EM64L-G16RevB.01 20-Dec-2017
                30-May-2025 
 ******************************************
 %mem=30GB
 %nprocshared=10
 Will use up to   10 processors via shared memory.
 ---------------------
 # CCSD/aug-cc-pVTZ SP
 ---------------------
 1/38=1,172=1/1;
 2/12=2,17=6,18=5,40=1/2;
 3/5=16,6=1,7=10,11=9,25=1,30=1/1,2,3;
 4//1;
 5/5=2,38=5/2;
 8/6=4,9=120000,10=1/1,4;
 9/5=7/13;
 6/7=2,8=2,9=2,10=2/1;
 99/5=1,9=1/99;
 --------------------------------------------------
 Single-point energy of X- + Y- at fixed distance R
 --------------------------------------------------
 Symbolic Z-matrix:
 Charge = -2 Multiplicity = 1
 F                     0.        0.        3.4 
 Cl                   -2.14      0.        0. 
 Li                    0.        0.        0. 
 Cl                    2.14      0.        0. 
 
                          Input orientation:                          
 ---------------------------------------------------------------------
 Center     Atomic      Atomic             Coordinates (Angstroms)
 Number     Number       Type             X           Y           Z
 ---------------------------------------------------------------------
      1          9           0        0.000000    0.000000    3.400000
      2         17           0       -2.140000    0.000000    0.000000
      3          3           0        0.000000    0.000000    0.000000
      4         17           0        2.140000    0.000000    0.000000
 ---------------------------------------------------------------------
                    Distance matrix (angstroms):
                    1          2          3          4
     1  F    0.000000
     2  Cl   4.017412   0.000000
     3  Li   3.400000   2.140000   0.000000
     4  Cl   4.017412   4.280000   2.140000   0.000000
 Stoichiometry    Cl2FLi(2-)
 Framework group  C2V[C2(LiF),SGV(Cl2)]
 Deg. of freedom     3
 Full point group                 C2V     NOp   4
 Largest Abelian subgroup         C2V     NOp   4
 Largest concise Abelian subgroup C2      NOp   2
                         Standard orientation:                         
 ---------------------------------------------------------------------
 Center     Atomic      Atomic             Coordinates (Angstroms)
 Number     Number       Type             X           Y           Z
 ---------------------------------------------------------------------
      1          9           0        0.000000    0.000000    2.734783
      2         17           0       -0.000000    2.140000   -0.665217
      3          3           0       -0.000000    0.000000   -0.665217
      4         17           0       -0.000000   -2.140000   -0.665217
 ---------------------------------------------------------------------
 Rotational constants (GHZ):           2.8692424           1.5778956           1.0180401
 Standard basis: Aug-CC-pVTZ (5D, 7F)
 There are    88 symmetry adapted cartesian basis functions of A1  symmetry.
 There are    29 symmetry adapted cartesian basis functions of A2  symmetry.
 There are    45 symmetry adapted cartesian basis functions of B1  symmetry.
 There are    66 symmetry adapted cartesian basis functions of B2  symmetry.
 There are    71 symmetry adapted basis functions of A1  symmetry.
 There are    27 symmetry adapted basis functions of A2  symmetry.
 There are    39 symmetry adapted basis functions of B1  symmetry.
 There are    55 symmetry adapted basis functions of B2  symmetry.
   192 basis functions,   374 primitive gaussians,   228 cartesian basis functions
    24 alpha electrons       24 beta electrons
       nuclear repulsion energy       105.4631814703 Hartrees.
 NAtoms=    4 NActive=    4 NUniq=    3 SFac= 1.78D+00 NAtFMM=   60 NAOKFM=F Big=F
 Integral buffers will be    131072 words long.
 Raffenetti 1 integral format.
 Two-electron integral symmetry is turned on.
 One-electron integrals computed using PRISM.
 NBasis=   192 RedAO= T EigKep=  1.09D-04  NBF=    71    27    39    55
 NBsUse=   192 1.00D-06 EigRej= -1.00D+00 NBFU=    71    27    39    55
 ExpMin= 7.59D-03 ExpMax= 4.56D+05 ExpMxC= 1.44D+03 IAcc=3 IRadAn=         5 AccDes= 0.00D+00
 Harris functional with IExCor=  205 and IRadAn=       5 diagonalized for initial guess.
 HarFok:  IExCor=  205 AccDes= 0.00D+00 IRadAn=         5 IDoV= 1 UseB2=F ITyADJ=14
 ICtDFT=  3500011 ScaDFX=  1.000000  1.000000  1.000000  1.000000
 FoFCou: FMM=F IPFlag=           0 FMFlag=      100000 FMFlg1=           0
         NFxFlg=           0 DoJE=T BraDBF=F KetDBF=T FulRan=T
         wScrn=  0.000000 ICntrl=       500 IOpCl=  0 I1Cent=   200000004 NGrid=           0
         NMat0=    1 NMatS0=      1 NMatT0=    0 NMatD0=    1 NMtDS0=    0 NMtDT0=    0
 Petite list used in FoFCou.
 Initial guess orbital symmetries:
       Occupied  (A1) (B2) (A1) (A1) (B2) (B2) (A1) (A1) (B1) (B2)
                 (A2) (A1) (A1) (B2) (A1) (A1) (B2) (B1) (B2) (A1)
                 (B1) (A1) (A2) (B2)
       Virtual   (A1) (B1) (A1) (B2) (A1) (A1) (B1) (B1) (B2) (A1)
                 (A1) (B2) (A2) (A1) (B1) (B2) (A1) (A1) (B1) (B2)
                 (A2) (A1) (B2) (A1) (B2) (A2) (B1) (B1) (A1) (B2)
                 (B2) (A1) (A2) (B2) (A1) (B1) (B2) (A1) (B1) (A1)
                 (B1) (A1) (B2) (A2) (A1) (B1) (A1) (B1) (A1) (A2)
                 (B2) (A1) (B2) (B2) (B2) (A2) (A1) (B1) (A1) (A2)
                 (B2) (B1) (A1) (A2) (B2) (A1) (B2) (A1) (B1) (A2)
                 (A1) (B1) (A1) (B1) (A1) (B1) (B2) (B2) (A2) (B2)
                 (A2) (B2) (A1) (A1) (B1) (A2) (A1) (B2) (B2) (B1)
                 (A1) (B1) (A1) (B1) (B2) (A1) (A1) (B1) (A1) (A2)
                 (B2) (B2) (A2) (B2) (A1) (A1) (B2) (B1) (A1) (A2)
                 (B2) (B2) (A2) (B1) (A1) (A1) (B2) (A2) (B2) (A2)
                 (A1) (B1) (B2) (A1) (B1) (A1) (B2) (A2) (B1) (B1)
                 (A1) (B2) (A1) (A1) (A2) (B2) (A1) (B1) (A1) (B2)
                 (B1) (A1) (B1) (A1) (A2) (B2) (A2) (B2) (B2) (A1)
                 (B1) (B2) (A1) (B2) (A1) (B1) (B2) (A2) (B1) (A1)
                 (B2) (A1) (A2) (A1) (B1) (B2) (A1) (A1)
 The electronic state of the initial guess is 1-A1.
 Keep R1 ints in memory in symmetry-blocked form, NReq=215097955.
 Requested convergence on RMS density matrix=1.00D-08 within 128 cycles.
 Requested convergence on MAX density matrix=1.00D-06.
 Requested convergence on             energy=1.00D-06.
 No special actions if energy rises.
 SCF Done:  E(RHF) =  -1026.05497340     A.U. after   11 cycles
            NFock= 11  Conv=0.63D-08     -V/T= 1.9999
 ExpMin= 7.59D-03 ExpMax= 4.56D+05 ExpMxC= 1.44D+03 IAcc=3 IRadAn=         5 AccDes= 0.00D+00
 HarFok:  IExCor=  205 AccDes= 0.00D+00 IRadAn=         5 IDoV=-2 UseB2=F ITyADJ=14
 ICtDFT= 12500011 ScaDFX=  1.000000  1.000000  1.000000  1.000000
 Range of M.O.s used for correlation:    13   192
 NBasis=   192 NAE=    24 NBE=    24 NFC=    12 NFV=     0
 NROrb=    180 NOA=    12 NOB=    12 NVA=   168 NVB=   168

 **** Warning!!: The largest alpha MO coefficient is  0.34576714D+02

 Semi-Direct transformation.
 ModeAB=           4 MOrb=            12 LenV=    4025514631
 LASXX=      8444399 LTotXX=     8444399 LenRXX=    17045430
 LTotAB=     8601031 MaxLAS=    35026560 LenRXY=           0
 NonZer=    25489829 LenScr=    39014400 LnRSAI=    35026560
 LnScr1=    53309952 LExtra=           0 Total=    144396342
 MaxDsk=          -1 SrtSym=           T ITran=            4
 JobTyp=0 Pass  1:  I=   1 to  12.
 (rs|ai) integrals will be sorted in core.
 Spin components of T(2) and E(2):
     alpha-alpha T2 =       0.3070217575D-01 E2=     -0.9122805493D-01
     alpha-beta  T2 =       0.1623103026D+00 E2=     -0.5288983637D+00
     beta-beta   T2 =       0.3070217575D-01 E2=     -0.9122805493D-01
 ANorm=    0.1106216369D+01
 E2 =    -0.7113544735D+00 EUMP2 =    -0.10267663278694D+04
 Keep R2 and R3 ints in memory in symmetry-blocked form, NReq=215104941.
 CIDS: In Core Option IDoMem=           1.
 Iterations=  50 Convergence= 0.100D-06
 Produce multiple copies of IABC intergrals
 Iteration Nr.   1
 **********************
 DD1Dir will call FoFMem   1 times, MxPair=       156
 NAB=    78 NAA=     0 NBB=     0.
 MP4(R+Q)=  0.15050813D-01
 E3=       -0.22447853D-01        EUMP3=      -0.10267887757D+04
 E4(DQ)=    0.56428411D-03        UMP4(DQ)=   -0.10267882114D+04
 E4(SDQ)=  -0.54826147D-02        UMP4(SDQ)=  -0.10267942583D+04
 DE(Corr)= -0.71820285     E(Corr)=     -1026.7731762    
 NORM(A)=   0.11113525D+01
 Iteration Nr.   2
 **********************
 DD1Dir will call FoFMem   1 times, MxPair=       156
 NAB=    78 NAA=     0 NBB=     0.
 DE(Corr)= -0.73503938     E(CORR)=     -1026.7900128     Delta=-1.68D-02
 NORM(A)=   0.11163249D+01
 Iteration Nr.   3
 **********************
 DD1Dir will call FoFMem   1 times, MxPair=       156
 NAB=    78 NAA=     0 NBB=     0.
 DE(Corr)= -0.73335563     E(CORR)=     -1026.7883290     Delta= 1.68D-03
 NORM(A)=   0.11182099D+01
 Iteration Nr.   4
 **********************
 DD1Dir will call FoFMem   1 times, MxPair=       156
 NAB=    78 NAA=     0 NBB=     0.
 DE(Corr)= -0.73497258     E(CORR)=     -1026.7899460     Delta=-1.62D-03
 NORM(A)=   0.11187783D+01
 Iteration Nr.   5
 **********************
 DD1Dir will call FoFMem   1 times, MxPair=       156
 NAB=    78 NAA=     0 NBB=     0.
 DE(Corr)= -0.73512907     E(CORR)=     -1026.7901025     Delta=-1.56D-04
 NORM(A)=   0.11190811D+01
 Iteration Nr.   6
 **********************
 DD1Dir will call FoFMem   1 times, MxPair=       156
 NAB=    78 NAA=     0 NBB=     0.
 DE(Corr)= -0.73515133     E(CORR)=     -1026.7901247     Delta=-2.23D-05
 NORM(A)=   0.11192277D+01
 Iteration Nr.   7
 **********************
 DD1Dir will call FoFMem   1 times, MxPair=       156
 NAB=    78 NAA=     0 NBB=     0.
 DE(Corr)= -0.73515279     E(CORR)=     -1026.7901262     Delta=-1.46D-06
 NORM(A)=   0.11192746D+01
 Iteration Nr.   8
 **********************
 DD1Dir will call FoFMem   1 times, MxPair=       156
 NAB=    78 NAA=     0 NBB=     0.
 DE(Corr)= -0.73516705     E(CORR)=     -1026.7901404     Delta=-1.43D-05
 NORM(A)=   0.11192958D+01
 Iteration Nr.   9
 **********************
 DD1Dir will call FoFMem   1 times, MxPair=       156
 NAB=    78 NAA=     0 NBB=     0.
 DE(Corr)= -0.73515472     E(CORR)=     -1026.7901281     Delta= 1.23D-05
 NORM(A)=   0.11193164D+01
 Iteration Nr.  10
 **********************
 DD1Dir will call FoFMem   1 times, MxPair=       156
 NAB=    78 NAA=     0 NBB=     0.
 DE(Corr)= -0.73515648     E(CORR)=     -1026.7901299     Delta=-1.76D-06
 NORM(A)=   0.11193161D+01
 Iteration Nr.  11
 **********************
 DD1Dir will call FoFMem   1 times, MxPair=       156
 NAB=    78 NAA=     0 NBB=     0.
 DE(Corr)= -0.73515573     E(CORR)=     -1026.7901291     Delta= 7.46D-07
 NORM(A)=   0.11193155D+01
 Iteration Nr.  12
 **********************
 DD1Dir will call FoFMem   1 times, MxPair=       156
 NAB=    78 NAA=     0 NBB=     0.
 DE(Corr)= -0.73515377     E(CORR)=     -1026.7901272     Delta= 1.96D-06
 NORM(A)=   0.11193135D+01
 Iteration Nr.  13
 **********************
 DD1Dir will call FoFMem   1 times, MxPair=       156
 NAB=    78 NAA=     0 NBB=     0.
 DE(Corr)= -0.73515310     E(CORR)=     -1026.7901265     Delta= 6.68D-07
 NORM(A)=   0.11193113D+01
 Iteration Nr.  14
 **********************
 DD1Dir will call FoFMem   1 times, MxPair=       156
 NAB=    78 NAA=     0 NBB=     0.
 DE(Corr)= -0.73515306     E(CORR)=     -1026.7901265     Delta= 4.48D-08
 NORM(A)=   0.11193097D+01
 Iteration Nr.  15
 **********************
 DD1Dir will call FoFMem   1 times, MxPair=       156
 NAB=    78 NAA=     0 NBB=     0.
 DE(Corr)= -0.73515281     E(CORR)=     -1026.7901262     Delta= 2.49D-07
 NORM(A)=   0.11193088D+01
 Iteration Nr.  16
 **********************
 DD1Dir will call FoFMem   1 times, MxPair=       156
 NAB=    78 NAA=     0 NBB=     0.
 DE(Corr)= -0.73515273     E(CORR)=     -1026.7901261     Delta= 7.98D-08
 NORM(A)=   0.11193080D+01
 Iteration Nr.  17
 **********************
 DD1Dir will call FoFMem   1 times, MxPair=       156
 NAB=    78 NAA=     0 NBB=     0.
 DE(Corr)= -0.73515271     E(CORR)=     -1026.7901261     Delta= 2.27D-08
 NORM(A)=   0.11193076D+01
 Iteration Nr.  18
 **********************
 DD1Dir will call FoFMem   1 times, MxPair=       156
 NAB=    78 NAA=     0 NBB=     0.
 DE(Corr)= -0.73515268     E(CORR)=     -1026.7901261     Delta= 2.75D-08
 NORM(A)=   0.11193073D+01
 Wavefunction amplitudes converged. E(Corr)=     -1026.7901261    
 Largest amplitude= 2.97D-02
 Discarding MO integrals.

 **********************************************************************

            Population analysis using the SCF Density.

 **********************************************************************

 Orbital symmetries:
       Occupied  (B2) (A1) (A1) (B2) (A1) (B2) (A1) (B1) (A2) (A1)
                 (B2) (A1) (A1) (B2) (A1) (B2) (A1) (B1) (A1) (A2)
                 (B2) (B1) (B2) (A1)
       Virtual   (A1) (B1) (B2) (A1) (A1) (B1) (B2) (A1) (A1) (B2)
                 (B1) (A2) (B1) (A1) (B2) (A1) (A2) (B2) (A1) (A1)
                 (B1) (A1) (B2) (A1) (B2) (B1) (A2) (A1) (B2) (B1)
                 (A1) (B1) (B2) (A1) (B1) (A2) (A1) (B2) (B1) (A1)
                 (A1) (B2) (B1) (A2) (B2) (A1) (A1) (A2) (B2) (A1)
                 (B1) (B2) (A1) (B2) (A1) (B1) (A2) (B2) (A1) (A2)
                 (B2) (A1) (B1) (A2) (B2) (B1) (B2) (A1) (A1) (B1)
                 (A1) (A1) (B1) (A2) (A1) (B1) (B2) (A2) (B2) (A2)
                 (A1) (B2) (B2) (A2) (A1) (B2) (A1) (B1) (B2) (A1)
                 (B1) (B1) (A1) (B1) (A1) (B2) (B1) (A1) (A2) (B2)
                 (A1) (B2) (A2) (B2) (A1) (B2) (A1) (B1) (A1) (A2)
                 (B2) (A2) (B2) (B1) (A1) (A1) (B2) (A2) (B2) (A1)
                 (B1) (A1) (A2) (B2) (A1) (A2) (B1) (A1) (B2) (B1)
                 (B1) (B2) (A1) (A2) (A1) (B1) (A1) (B2) (A1) (B1)
                 (B2) (B1) (A1) (A2) (A1) (B2) (A2) (B2) (B2) (A1)
                 (B1) (B2) (A1) (B2) (A1) (B1) (B2) (A2) (B1) (A1)
                 (B2) (A1) (A2) (A1) (B1) (B2) (A1) (A1)
 The electronic state is 1-A1.
 Alpha  occ. eigenvalues -- -104.46193-104.46193 -25.73033 -10.18706 -10.18706
 Alpha  occ. eigenvalues --   -7.65326  -7.65326  -7.65313  -7.65312  -7.65306
 Alpha  occ. eigenvalues --   -7.65306  -2.10979  -0.97283  -0.70207  -0.70062
 Alpha  occ. eigenvalues --   -0.13496  -0.13178  -0.11506  -0.11278  -0.11012
 Alpha  occ. eigenvalues --   -0.10800  -0.07755  -0.07728  -0.07681
 Alpha virt. eigenvalues --    0.15152   0.16093   0.16245   0.18468   0.26417
 Alpha virt. eigenvalues --    0.27222   0.28520   0.29911   0.32689   0.32950
 Alpha virt. eigenvalues --    0.34919   0.35470   0.37041   0.37081   0.37666
 Alpha virt. eigenvalues --    0.38168   0.40892   0.41660   0.43349   0.44122
 Alpha virt. eigenvalues --    0.44199   0.49525   0.50619   0.52624   0.57272
 Alpha virt. eigenvalues --    0.57708   0.58899   0.58987   0.59698   0.60007
 Alpha virt. eigenvalues --    0.61428   0.63970   0.63991   0.64608   0.66337
 Alpha virt. eigenvalues --    0.67641   0.68507   0.70536   0.72609   0.72786
 Alpha virt. eigenvalues --    0.73925   0.74323   0.75845   0.76160   0.77094
 Alpha virt. eigenvalues --    0.77849   0.82322   0.82646   0.84209   0.85412
 Alpha virt. eigenvalues --    0.86097   0.91664   0.94504   1.02487   1.11616
 Alpha virt. eigenvalues --    1.12539   1.13556   1.14660   1.17061   1.18433
 Alpha virt. eigenvalues --    1.19477   1.20426   1.20784   1.22584   1.23935
 Alpha virt. eigenvalues --    1.24250   1.24631   1.24921   1.25841   1.26899
 Alpha virt. eigenvalues --    1.28120   1.30734   1.31888   1.35295   1.39917
 Alpha virt. eigenvalues --    1.42642   1.43266   1.43783   1.44842   1.45259
 Alpha virt. eigenvalues --    1.45854   1.47039   1.49060   1.51820   1.52445
 Alpha virt. eigenvalues --    1.55812   1.55905   1.56526   1.61872   1.62359
 Alpha virt. eigenvalues --    1.62709   1.64884   1.65796   1.67338   1.71376
 Alpha virt. eigenvalues --    1.71645   1.79278   1.81456   1.85250   1.88400
 Alpha virt. eigenvalues --    1.88463   1.99733   2.05527   2.06478   2.23257
 Alpha virt. eigenvalues --    2.41228   2.43047   2.91040   2.91661   2.96456
 Alpha virt. eigenvalues --    2.96568   2.99425   2.99750   3.01091   3.02617
 Alpha virt. eigenvalues --    3.07625   3.11720   3.22585   3.25285   3.36050
 Alpha virt. eigenvalues --    3.37460   3.37693   3.39705   3.40194   3.41208
 Alpha virt. eigenvalues --    3.41608   3.42382   3.42624   3.43010   3.43223
 Alpha virt. eigenvalues --    3.43758   3.43792   3.44125   3.44155   3.45042
 Alpha virt. eigenvalues --    3.45971   3.47616   3.49344   3.49634   3.49650
 Alpha virt. eigenvalues --    3.53012   3.55687   3.57715   3.58183   3.58402
 Alpha virt. eigenvalues --    3.60618   3.70905   3.72108   3.89631   4.48879
 Alpha virt. eigenvalues --    5.80170   5.83551   5.89013   6.92246   7.48904
 Alpha virt. eigenvalues --    9.37206   9.37285   9.37471   9.37648   9.37803
 Alpha virt. eigenvalues --    9.38548   9.38801   9.85858   9.86818   9.89105
 Alpha virt. eigenvalues --    9.92262   9.94545  11.68717
          Condensed to atoms (all electrons):
               1          2          3          4
     1  F   10.036633  -0.004843  -0.015751  -0.004843
     2  Cl  -0.004843  17.682680   0.142096  -0.020473
     3  Li  -0.015751   0.142096   2.121442   0.142096
     4  Cl  -0.004843  -0.020473   0.142096  17.682680
 Mulliken charges:
               1
     1  F   -1.011197
     2  Cl  -0.799460
     3  Li   0.610118
     4  Cl  -0.799460
 Sum of Mulliken charges =  -2.00000
 Mulliken charges with hydrogens summed into heavy atoms:
               1
     1  F   -1.011197
     2  Cl  -0.799460
     3  Li   0.610118
     4  Cl  -0.799460
 Electronic spatial extent (au):  <R**2>=           1003.2565
 Charge=             -2.0000 electrons
 Dipole moment (field-independent basis, Debye):
    X=              0.0000    Y=              0.0000    Z=             -8.4293  Tot=              8.4293
 Quadrupole moment (field-independent basis, Debye-Ang):
   XX=            -40.5272   YY=            -77.8685   ZZ=            -81.1759
   XY=             -0.0000   XZ=             -0.0000   YZ=             -0.0000
 Traceless Quadrupole moment (field-independent basis, Debye-Ang):
   XX=             25.9967   YY=            -11.3447   ZZ=            -14.6521
   XY=             -0.0000   XZ=             -0.0000   YZ=             -0.0000
 Octapole moment (field-independent basis, Debye-Ang**2):
  XXX=              0.0000  YYY=             -0.0000  ZZZ=            -86.8364  XYY=              0.0000
  XXY=             -0.0000  XXZ=              3.8614  XZZ=              0.0000  YZZ=              0.0000
  YYZ=             34.8069  XYZ=              0.0000
 Hexadecapole moment (field-independent basis, Debye-Ang**3):
 XXXX=            -58.7638 YYYY=          -1101.0091 ZZZZ=           -765.5901 XXXY=             -0.0000
 XXXZ=             -0.0000 YYYX=             -0.0000 YYYZ=             -0.0000 ZZZX=             -0.0000
 ZZZY=              0.0000 XXYY=           -167.9085 XXZZ=            -90.3057 YYZZ=           -261.8603
 XXYZ=             -0.0000 YYXZ=             -0.0000 ZZXY=             -0.0000
 N-N= 1.054631814703D+02 E-N=-2.676414815289D+03  KE= 1.026132179048D+03
 Symmetry A1   KE= 5.095988039479D+02
 Symmetry A2   KE= 4.536410487531D+01
 Symmetry B1   KE= 5.096710122689D+01
 Symmetry B2   KE= 4.202021689981D+02
 1\1\GINC-HELIOS\SP\RCCSD-FC\Aug-CC-pVTZ\Cl2F1Li1(2-)\POHL\30-May-2025\
 0\\# CCSD/aug-cc-pVTZ SP\\Single-point energy of X- + Y- at fixed dist
 ance R\\-2,1\F,0,0.,0.,3.4\Cl,0,-2.14,0.,0.\Li,0,0.,0.,0.\Cl,0,2.14,0.
 ,0.\\Version=EM64L-G16RevB.01\State=1-A1\HF=-1026.0549734\MP2=-1026.76
 63279\MP3=-1026.7887757\MP4D=-1026.8032623\MP4DQ=-1026.7882114\MP4SDQ=
 -1026.7942583\CCSD=-1026.7901261\RMSD=6.310e-09\PG=C02V [C2(Li1F1),SGV
 (Cl2)]\\@


 WAR ES EIN GOTT DER DIESE ZEICHEN SCHRIEB?
          - LUDWIG BOLTZMANN, QUOTING GOETHE, ABOUT MAXWELL'S EQUATIONS.
 Job cpu time:       0 days  0 hours 10 minutes 39.7 seconds.
 Elapsed time:       0 days  0 hours  1 minutes  4.3 seconds.
 File lengths (MBytes):  RWF=   1150 Int=      0 D2E=      0 Chk=      4 Scr=      1
 Normal termination of Gaussian 16 at Fri May 30 10:28:02 2025.
