 Entering Gaussian System, Link 0=g16
 Initial command:
 /opt/g16/l1.exe "/home/pohl/scratches/g16/Gau-2119715.inp" -scrdir="/home/pohl/scratches/g16/"
 Entering Link 1 = /opt/g16/l1.exe PID=   2119717.
  
 Copyright (c) 1988-2017, Gaussian, Inc.  All Rights Reserved.
  
 This is part of the Gaussian(R) 16 program.  It is based on
 the Gaussian(R) 09 system (copyright 2009, Gaussian, Inc.),
 the Gaussian(R) 03 system (copyright 2003, Gaussian, Inc.),
 the Gaussian(R) 98 system (copyright 1998, Gaussian, Inc.),
 the Gaussian(R) 94 system (copyright 1995, Gaussian, Inc.),
 the Gaussian 92(TM) system (copyright 1992, Gaussian, Inc.),
 the Gaussian 90(TM) system (copyright 1990, Gaussian, Inc.),
 the Gaussian 88(TM) system (copyright 1988, Gaussian, Inc.),
 the Gaussian 86(TM) system (copyright 1986, Carnegie Mellon
 University), and the Gaussian 82(TM) system (copyright 1983,
 Carnegie Mellon University). Gaussian is a federally registered
 trademark of Gaussian, Inc.
  
 This software contains proprietary and confidential information,
 including trade secrets, belonging to Gaussian, Inc.
  
 This software is provided under written license and may be
 used, copied, transmitted, or stored only in accord with that
 written license.
  
 The following legend is applicable only to US Government
 contracts under FAR:
  
                    RESTRICTED RIGHTS LEGEND
  
 Use, reproduction and disclosure by the US Government is
 subject to restrictions as set forth in subparagraphs (a)
 and (c) of the Commercial Computer Software - Restricted
 Rights clause in FAR 52.227-19.
  
 Gaussian, Inc.
 340 Quinnipiac St., Bldg. 40, Wallingford CT 06492
  
  
 ---------------------------------------------------------------
 Warning -- This program may not be used in any manner that
 competes with the business of Gaussian, Inc. or will provide
 assistance to any competitor of Gaussian, Inc.  The licensee
 of this program is prohibited from giving any competitor of
 Gaussian, Inc. access to this program.  By using this program,
 the user acknowledges that Gaussian, Inc. is engaged in the
 business of creating and licensing software in the field of
 computational chemistry and represents and warrants to the
 licensee that it is not a competitor of Gaussian, Inc. and that
 it will not use this program in any manner prohibited above.
 ---------------------------------------------------------------
  

 Cite this work as:
 Gaussian 16, Revision B.01,
 M. J. Frisch, G. W. Trucks, H. B. Schlegel, G. E. Scuseria, 
 M. A. Robb, J. R. Cheeseman, G. Scalmani, V. Barone, 
 G. A. Petersson, H. Nakatsuji, X. Li, M. Caricato, A. V. Marenich, 
 J. Bloino, B. G. Janesko, R. Gomperts, B. Mennucci, H. P. Hratchian, 
 J. V. Ortiz, A. F. Izmaylov, J. L. Sonnenberg, D. Williams-Young, 
 F. Ding, F. Lipparini, F. Egidi, J. Goings, B. Peng, A. Petrone, 
 T. Henderson, D. Ranasinghe, V. G. Zakrzewski, J. Gao, N. Rega, 
 G. Zheng, W. Liang, M. Hada, M. Ehara, K. Toyota, R. Fukuda, 
 J. Hasegawa, M. Ishida, T. Nakajima, Y. Honda, O. Kitao, H. Nakai, 
 T. Vreven, K. Throssell, J. A. Montgomery, Jr., J. E. Peralta, 
 F. Ogliaro, M. J. Bearpark, J. J. Heyd, E. N. Brothers, K. N. Kudin, 
 V. N. Staroverov, T. A. Keith, R. Kobayashi, J. Normand, 
 K. Raghavachari, A. P. Rendell, J. C. Burant, S. S. Iyengar, 
 J. Tomasi, M. Cossi, J. M. Millam, M. Klene, C. Adamo, R. Cammi, 
 J. W. Ochterski, R. L. Martin, K. Morokuma, O. Farkas, 
 J. B. Foresman, and D. J. Fox, Gaussian, Inc., Wallingford CT, 2016.
 
 ******************************************
 Gaussian 16:  EM64L-G16RevB.01 20-Dec-2017
                30-May-2025 
 ******************************************
 %mem=30GB
 %nprocshared=10
 Will use up to   10 processors via shared memory.
 ---------------------
 # CCSD/aug-cc-pVTZ SP
 ---------------------
 1/38=1,172=1/1;
 2/12=2,17=6,18=5,40=1/2;
 3/5=16,6=1,7=10,11=9,25=1,30=1/1,2,3;
 4//1;
 5/5=2,38=5/2;
 8/6=4,9=120000,10=1/1,4;
 9/5=7/13;
 6/7=2,8=2,9=2,10=2/1;
 99/5=1,9=1/99;
 --------------------------------------------------
 Single-point energy of X- + Y- at fixed distance R
 --------------------------------------------------
 Symbolic Z-matrix:
 Charge = -2 Multiplicity = 1
 F                     0.        0.        3.8 
 Cl                   -2.14      0.        0. 
 Li                    0.        0.        0. 
 Cl                    2.14      0.        0. 
 
                          Input orientation:                          
 ---------------------------------------------------------------------
 Center     Atomic      Atomic             Coordinates (Angstroms)
 Number     Number       Type             X           Y           Z
 ---------------------------------------------------------------------
      1          9           0        0.000000    0.000000    3.800000
      2         17           0       -2.140000    0.000000    0.000000
      3          3           0        0.000000    0.000000    0.000000
      4         17           0        2.140000    0.000000    0.000000
 ---------------------------------------------------------------------
                    Distance matrix (angstroms):
                    1          2          3          4
     1  F    0.000000
     2  Cl   4.361147   0.000000
     3  Li   3.800000   2.140000   0.000000
     4  Cl   4.361147   4.280000   2.140000   0.000000
 Stoichiometry    Cl2FLi(2-)
 Framework group  C2V[C2(LiF),SGV(Cl2)]
 Deg. of freedom     3
 Full point group                 C2V     NOp   4
 Largest Abelian subgroup         C2V     NOp   4
 Largest concise Abelian subgroup C2      NOp   2
                         Standard orientation:                         
 ---------------------------------------------------------------------
 Center     Atomic      Atomic             Coordinates (Angstroms)
 Number     Number       Type             X           Y           Z
 ---------------------------------------------------------------------
      1          9           0        0.000000    0.000000    3.056522
      2         17           0       -0.000000    2.140000   -0.743478
      3          3           0       -0.000000    0.000000   -0.743478
      4         17           0       -0.000000   -2.140000   -0.743478
 ---------------------------------------------------------------------
 Rotational constants (GHZ):           2.2969836           1.5778956           0.9353583
 Standard basis: Aug-CC-pVTZ (5D, 7F)
 There are    88 symmetry adapted cartesian basis functions of A1  symmetry.
 There are    29 symmetry adapted cartesian basis functions of A2  symmetry.
 There are    45 symmetry adapted cartesian basis functions of B1  symmetry.
 There are    66 symmetry adapted cartesian basis functions of B2  symmetry.
 There are    71 symmetry adapted basis functions of A1  symmetry.
 There are    27 symmetry adapted basis functions of A2  symmetry.
 There are    39 symmetry adapted basis functions of B1  symmetry.
 There are    55 symmetry adapted basis functions of B2  symmetry.
   192 basis functions,   374 primitive gaussians,   228 cartesian basis functions
    24 alpha electrons       24 beta electrons
       nuclear repulsion energy       101.8439709602 Hartrees.
 NAtoms=    4 NActive=    4 NUniq=    3 SFac= 1.78D+00 NAtFMM=   60 NAOKFM=F Big=F
 Integral buffers will be    131072 words long.
 Raffenetti 1 integral format.
 Two-electron integral symmetry is turned on.
 One-electron integrals computed using PRISM.
 NBasis=   192 RedAO= T EigKep=  1.11D-04  NBF=    71    27    39    55
 NBsUse=   192 1.00D-06 EigRej= -1.00D+00 NBFU=    71    27    39    55
 ExpMin= 7.59D-03 ExpMax= 4.56D+05 ExpMxC= 1.44D+03 IAcc=3 IRadAn=         5 AccDes= 0.00D+00
 Harris functional with IExCor=  205 and IRadAn=       5 diagonalized for initial guess.
 HarFok:  IExCor=  205 AccDes= 0.00D+00 IRadAn=         5 IDoV= 1 UseB2=F ITyADJ=14
 ICtDFT=  3500011 ScaDFX=  1.000000  1.000000  1.000000  1.000000
 FoFCou: FMM=F IPFlag=           0 FMFlag=      100000 FMFlg1=           0
         NFxFlg=           0 DoJE=T BraDBF=F KetDBF=T FulRan=T
         wScrn=  0.000000 ICntrl=       500 IOpCl=  0 I1Cent=   200000004 NGrid=           0
         NMat0=    1 NMatS0=      1 NMatT0=    0 NMatD0=    1 NMtDS0=    0 NMtDT0=    0
 Petite list used in FoFCou.
 Initial guess orbital symmetries:
       Occupied  (A1) (B2) (A1) (A1) (B2) (B2) (A1) (A1) (B1) (B2)
                 (A2) (A1) (A1) (B2) (A1) (A1) (B2) (B1) (B2) (A1)
                 (B1) (A1) (A2) (B2)
       Virtual   (A1) (B1) (A1) (B2) (A1) (A1) (B1) (A1) (B1) (B2)
                 (A1) (B2) (A2) (A1) (B1) (B2) (A1) (A1) (B1) (B2)
                 (A2) (A1) (B2) (A1) (B2) (B1) (A2) (B1) (A1) (B2)
                 (B2) (A1) (A2) (A1) (B2) (B1) (B2) (A1) (B1) (A1)
                 (B1) (A1) (B2) (A2) (A1) (B1) (A1) (B1) (A1) (A2)
                 (B2) (A1) (B2) (B2) (B2) (A2) (B1) (A1) (A1) (A2)
                 (B2) (A1) (B1) (A2) (B2) (A1) (B2) (B1) (A1) (A2)
                 (A1) (B1) (B1) (A1) (A1) (B2) (B1) (A2) (B2) (B2)
                 (A2) (A1) (B2) (A1) (B1) (A1) (A2) (B2) (B2) (B1)
                 (A1) (B1) (A1) (B1) (B2) (A1) (A1) (B1) (A1) (A2)
                 (B2) (B2) (A2) (B2) (A1) (A1) (B2) (B1) (A1) (A2)
                 (B2) (B2) (A2) (B1) (A1) (A1) (B2) (A2) (B2) (A2)
                 (A1) (B1) (B2) (A1) (A1) (B1) (B2) (A2) (B1) (B1)
                 (A1) (A1) (B2) (A1) (A1) (A2) (B2) (B1) (A1) (B2)
                 (B1) (A1) (B1) (A1) (A2) (B2) (A2) (B2) (B2) (A1)
                 (B1) (B2) (A1) (B2) (A1) (B1) (B2) (A2) (A1) (B1)
                 (A1) (B2) (A2) (A1) (B1) (B2) (A1) (A1)
 The electronic state of the initial guess is 1-A1.
 Keep R1 ints in memory in symmetry-blocked form, NReq=215097955.
 Requested convergence on RMS density matrix=1.00D-08 within 128 cycles.
 Requested convergence on MAX density matrix=1.00D-06.
 Requested convergence on             energy=1.00D-06.
 No special actions if energy rises.
 SCF Done:  E(RHF) =  -1026.05970101     A.U. after   11 cycles
            NFock= 11  Conv=0.50D-08     -V/T= 1.9999
 ExpMin= 7.59D-03 ExpMax= 4.56D+05 ExpMxC= 1.44D+03 IAcc=3 IRadAn=         5 AccDes= 0.00D+00
 HarFok:  IExCor=  205 AccDes= 0.00D+00 IRadAn=         5 IDoV=-2 UseB2=F ITyADJ=14
 ICtDFT= 12500011 ScaDFX=  1.000000  1.000000  1.000000  1.000000
 Range of M.O.s used for correlation:    13   192
 NBasis=   192 NAE=    24 NBE=    24 NFC=    12 NFV=     0
 NROrb=    180 NOA=    12 NOB=    12 NVA=   168 NVB=   168

 **** Warning!!: The largest alpha MO coefficient is  0.34833737D+02

 Semi-Direct transformation.
 ModeAB=           4 MOrb=            12 LenV=    4025516023
 LASXX=      8444399 LTotXX=     8444399 LenRXX=    17045430
 LTotAB=     8601031 MaxLAS=    34700400 LenRXY=           0
 NonZer=    25489829 LenScr=    39014400 LnRSAI=    34700400
 LnScr1=    52815872 LExtra=           0 Total=    143576102
 MaxDsk=          -1 SrtSym=           T ITran=            4
 JobTyp=0 Pass  1:  I=   1 to  12.
 (rs|ai) integrals will be sorted in core.
 Spin components of T(2) and E(2):
     alpha-alpha T2 =       0.3064069639D-01 E2=     -0.9111842645D-01
     alpha-beta  T2 =       0.1621341562D+00 E2=     -0.5286182833D+00
     beta-beta   T2 =       0.3064069639D-01 E2=     -0.9111842645D-01
 ANorm=    0.1106081167D+01
 E2 =    -0.7108551362D+00 EUMP2 =    -0.10267705561442D+04
 Keep R2 and R3 ints in memory in symmetry-blocked form, NReq=215104941.
 CIDS: In Core Option IDoMem=           1.
 Iterations=  50 Convergence= 0.100D-06
 Produce multiple copies of IABC intergrals
 Iteration Nr.   1
 **********************
 DD1Dir will call FoFMem   1 times, MxPair=       156
 NAB=    78 NAA=     0 NBB=     0.
 MP4(R+Q)=  0.14984280D-01
 E3=       -0.22446103D-01        EUMP3=      -0.10267930022D+04
 E4(DQ)=    0.48870317D-03        UMP4(DQ)=   -0.10267925135D+04
 E4(SDQ)=  -0.55100825D-02        UMP4(SDQ)=  -0.10267985123D+04
 DE(Corr)= -0.71777091     E(Corr)=     -1026.7774719    
 NORM(A)=   0.11112068D+01
 Iteration Nr.   2
 **********************
 DD1Dir will call FoFMem   1 times, MxPair=       156
 NAB=    78 NAA=     0 NBB=     0.
 DE(Corr)= -0.73456429     E(CORR)=     -1026.7942653     Delta=-1.68D-02
 NORM(A)=   0.11161564D+01
 Iteration Nr.   3
 **********************
 DD1Dir will call FoFMem   1 times, MxPair=       156
 NAB=    78 NAA=     0 NBB=     0.
 DE(Corr)= -0.73289387     E(CORR)=     -1026.7925949     Delta= 1.67D-03
 NORM(A)=   0.11180003D+01
 Iteration Nr.   4
 **********************
 DD1Dir will call FoFMem   1 times, MxPair=       156
 NAB=    78 NAA=     0 NBB=     0.
 DE(Corr)= -0.73449716     E(CORR)=     -1026.7941982     Delta=-1.60D-03
 NORM(A)=   0.11185510D+01
 Iteration Nr.   5
 **********************
 DD1Dir will call FoFMem   1 times, MxPair=       156
 NAB=    78 NAA=     0 NBB=     0.
 DE(Corr)= -0.73464927     E(CORR)=     -1026.7943503     Delta=-1.52D-04
 NORM(A)=   0.11188317D+01
 Iteration Nr.   6
 **********************
 DD1Dir will call FoFMem   1 times, MxPair=       156
 NAB=    78 NAA=     0 NBB=     0.
 DE(Corr)= -0.73467022     E(CORR)=     -1026.7943712     Delta=-2.10D-05
 NORM(A)=   0.11189669D+01
 Iteration Nr.   7
 **********************
 DD1Dir will call FoFMem   1 times, MxPair=       156
 NAB=    78 NAA=     0 NBB=     0.
 DE(Corr)= -0.73467137     E(CORR)=     -1026.7943724     Delta=-1.15D-06
 NORM(A)=   0.11190071D+01
 Iteration Nr.   8
 **********************
 DD1Dir will call FoFMem   1 times, MxPair=       156
 NAB=    78 NAA=     0 NBB=     0.
 DE(Corr)= -0.73468425     E(CORR)=     -1026.7943853     Delta=-1.29D-05
 NORM(A)=   0.11190252D+01
 Iteration Nr.   9
 **********************
 DD1Dir will call FoFMem   1 times, MxPair=       156
 NAB=    78 NAA=     0 NBB=     0.
 DE(Corr)= -0.73467294     E(CORR)=     -1026.7943739     Delta= 1.13D-05
 NORM(A)=   0.11190429D+01
 Iteration Nr.  10
 **********************
 DD1Dir will call FoFMem   1 times, MxPair=       156
 NAB=    78 NAA=     0 NBB=     0.
 DE(Corr)= -0.73467451     E(CORR)=     -1026.7943755     Delta=-1.57D-06
 NORM(A)=   0.11190424D+01
 Iteration Nr.  11
 **********************
 DD1Dir will call FoFMem   1 times, MxPair=       156
 NAB=    78 NAA=     0 NBB=     0.
 DE(Corr)= -0.73467384     E(CORR)=     -1026.7943748     Delta= 6.69D-07
 NORM(A)=   0.11190417D+01
 Iteration Nr.  12
 **********************
 DD1Dir will call FoFMem   1 times, MxPair=       156
 NAB=    78 NAA=     0 NBB=     0.
 DE(Corr)= -0.73467209     E(CORR)=     -1026.7943731     Delta= 1.75D-06
 NORM(A)=   0.11190399D+01
 Iteration Nr.  13
 **********************
 DD1Dir will call FoFMem   1 times, MxPair=       156
 NAB=    78 NAA=     0 NBB=     0.
 DE(Corr)= -0.73467143     E(CORR)=     -1026.7943724     Delta= 6.57D-07
 NORM(A)=   0.11190379D+01
 Iteration Nr.  14
 **********************
 DD1Dir will call FoFMem   1 times, MxPair=       156
 NAB=    78 NAA=     0 NBB=     0.
 DE(Corr)= -0.73467142     E(CORR)=     -1026.7943724     Delta= 1.39D-08
 NORM(A)=   0.11190364D+01
 Iteration Nr.  15
 **********************
 DD1Dir will call FoFMem   1 times, MxPair=       156
 NAB=    78 NAA=     0 NBB=     0.
 DE(Corr)= -0.73467121     E(CORR)=     -1026.7943722     Delta= 2.04D-07
 NORM(A)=   0.11190357D+01
 Iteration Nr.  16
 **********************
 DD1Dir will call FoFMem   1 times, MxPair=       156
 NAB=    78 NAA=     0 NBB=     0.
 DE(Corr)= -0.73467113     E(CORR)=     -1026.7943721     Delta= 8.01D-08
 NORM(A)=   0.11190350D+01
 Iteration Nr.  17
 **********************
 DD1Dir will call FoFMem   1 times, MxPair=       156
 NAB=    78 NAA=     0 NBB=     0.
 DE(Corr)= -0.73467111     E(CORR)=     -1026.7943721     Delta= 2.15D-08
 NORM(A)=   0.11190347D+01
 Iteration Nr.  18
 **********************
 DD1Dir will call FoFMem   1 times, MxPair=       156
 NAB=    78 NAA=     0 NBB=     0.
 DE(Corr)= -0.73467109     E(CORR)=     -1026.7943721     Delta= 1.88D-08
 NORM(A)=   0.11190345D+01
 Wavefunction amplitudes converged. E(Corr)=     -1026.7943721    
 Largest amplitude= 3.27D-02
 Discarding MO integrals.

 **********************************************************************

            Population analysis using the SCF Density.

 **********************************************************************

 Orbital symmetries:
       Occupied  (B2) (A1) (A1) (B2) (A1) (B2) (A1) (B1) (A2) (A1)
                 (B2) (A1) (A1) (B2) (A1) (B2) (A1) (B1) (A1) (A2)
                 (B2) (B2) (B1) (A1)
       Virtual   (A1) (B1) (B2) (A1) (A1) (B1) (B2) (A1) (A1) (B2)
                 (B1) (A2) (B1) (A1) (B2) (A1) (A2) (B2) (A1) (B1)
                 (A1) (A1) (B2) (A1) (B2) (B1) (A2) (A1) (B2) (B1)
                 (A1) (B2) (A1) (B1) (B1) (A2) (A1) (B2) (A1) (B1)
                 (A1) (B2) (B1) (A2) (B2) (A1) (A1) (A2) (B2) (A1)
                 (B1) (B2) (A1) (B2) (A1) (B1) (A2) (B2) (A1) (A2)
                 (B2) (B1) (A1) (A2) (B2) (B2) (B1) (A1) (B1) (A1)
                 (A1) (B1) (A1) (A2) (A1) (B1) (B2) (A2) (B2) (A2)
                 (A1) (B2) (B2) (A1) (A2) (B2) (A1) (B1) (B2) (A1)
                 (B1) (B1) (A1) (B1) (B2) (A1) (A1) (B1) (A1) (A2)
                 (B2) (B2) (A2) (B2) (A1) (A1) (B2) (B1) (A1) (A2)
                 (B2) (A2) (B2) (B1) (A1) (A1) (B2) (A2) (B2) (A1)
                 (A1) (B1) (A2) (B2) (A2) (A1) (B1) (A1) (B2) (B1)
                 (A1) (B2) (B1) (A2) (A1) (B1) (A1) (A1) (B2) (B1)
                 (B2) (A1) (B1) (A2) (A1) (B2) (A2) (B2) (B2) (A1)
                 (B1) (B2) (A1) (B2) (A1) (B1) (B2) (A2) (A1) (B1)
                 (A1) (B2) (A2) (A1) (B1) (B2) (A1) (A1)
 The electronic state is 1-A1.
 Alpha  occ. eigenvalues -- -104.47102-104.47102 -25.73340 -10.19617 -10.19617
 Alpha  occ. eigenvalues --   -7.66237  -7.66237  -7.66223  -7.66223  -7.66218
 Alpha  occ. eigenvalues --   -7.66218  -2.12168  -0.97566  -0.71134  -0.70989
 Alpha  occ. eigenvalues --   -0.14423  -0.14093  -0.12410  -0.12180  -0.11912
 Alpha  occ. eigenvalues --   -0.11705  -0.08050  -0.08050  -0.08025
 Alpha virt. eigenvalues --    0.14960   0.16011   0.16177   0.18595   0.26064
 Alpha virt. eigenvalues --    0.26838   0.28178   0.29568   0.32226   0.32599
 Alpha virt. eigenvalues --    0.34638   0.35022   0.36644   0.36716   0.37365
 Alpha virt. eigenvalues --    0.37977   0.40496   0.41681   0.42912   0.43334
 Alpha virt. eigenvalues --    0.43763   0.47961   0.50037   0.52714   0.56336
 Alpha virt. eigenvalues --    0.56578   0.58045   0.58341   0.58871   0.59074
 Alpha virt. eigenvalues --    0.60716   0.62885   0.62894   0.63001   0.65014
 Alpha virt. eigenvalues --    0.66692   0.66813   0.69003   0.71766   0.71836
 Alpha virt. eigenvalues --    0.73212   0.73292   0.74648   0.75441   0.76398
 Alpha virt. eigenvalues --    0.77009   0.80185   0.81807   0.83293   0.83870
 Alpha virt. eigenvalues --    0.85236   0.90677   0.91765   1.01667   1.10888
 Alpha virt. eigenvalues --    1.11201   1.12700   1.12971   1.14020   1.17375
 Alpha virt. eigenvalues --    1.18122   1.19864   1.20546   1.21724   1.22432
 Alpha virt. eigenvalues --    1.23110   1.23409   1.23996   1.25684   1.26017
 Alpha virt. eigenvalues --    1.27248   1.30518   1.31530   1.33696   1.37273
 Alpha virt. eigenvalues --    1.40044   1.42404   1.42954   1.43362   1.44184
 Alpha virt. eigenvalues --    1.44865   1.45797   1.49144   1.49490   1.50836
 Alpha virt. eigenvalues --    1.53270   1.54860   1.55473   1.60818   1.61409
 Alpha virt. eigenvalues --    1.61903   1.63802   1.64982   1.65500   1.68846
 Alpha virt. eigenvalues --    1.68983   1.77268   1.78391   1.82165   1.84191
 Alpha virt. eigenvalues --    1.85401   1.98945   2.04620   2.05420   2.22345
 Alpha virt. eigenvalues --    2.39905   2.40102   2.90136   2.90736   2.95521
 Alpha virt. eigenvalues --    2.95843   2.98545   2.98772   3.00234   3.01640
 Alpha virt. eigenvalues --    3.06703   3.10840   3.21670   3.23112   3.35284
 Alpha virt. eigenvalues --    3.36481   3.36655   3.39107   3.40071   3.40430
 Alpha virt. eigenvalues --    3.40586   3.40804   3.42417   3.42560   3.42651
 Alpha virt. eigenvalues --    3.43162   3.43245   3.43301   3.43545   3.44661
 Alpha virt. eigenvalues --    3.44903   3.45388   3.46398   3.46690   3.47579
 Alpha virt. eigenvalues --    3.50625   3.52788   3.54769   3.56977   3.57182
 Alpha virt. eigenvalues --    3.59277   3.69983   3.70970   3.88252   4.47530
 Alpha virt. eigenvalues --    5.79219   5.81105   5.84469   6.91292   7.47266
 Alpha virt. eigenvalues --    9.36858   9.36876   9.37006   9.37124   9.37168
 Alpha virt. eigenvalues --    9.37588   9.37926   9.85063   9.85576   9.87273
 Alpha virt. eigenvalues --    9.89936   9.92079  11.61500
          Condensed to atoms (all electrons):
               1          2          3          4
     1  F   10.022544  -0.002011  -0.010346  -0.002011
     2  Cl  -0.002011  17.663138   0.148721  -0.019539
     3  Li  -0.010346   0.148721   2.124109   0.148721
     4  Cl  -0.002011  -0.019539   0.148721  17.663138
 Mulliken charges:
               1
     1  F   -1.008176
     2  Cl  -0.790309
     3  Li   0.588794
     4  Cl  -0.790309
 Sum of Mulliken charges =  -2.00000
 Mulliken charges with hydrogens summed into heavy atoms:
               1
     1  F   -1.008176
     2  Cl  -0.790309
     3  Li   0.588794
     4  Cl  -0.790309
 Electronic spatial extent (au):  <R**2>=           1084.0951
 Charge=             -2.0000 electrons
 Dipole moment (field-independent basis, Debye):
    X=              0.0000    Y=              0.0000    Z=             -9.8133  Tot=              9.8133
 Quadrupole moment (field-independent basis, Debye-Ang):
   XX=            -40.4438   YY=            -76.9813   ZZ=            -90.7366
   XY=             -0.0000   XZ=             -0.0000   YZ=              0.0000
 Traceless Quadrupole moment (field-independent basis, Debye-Ang):
   XX=             28.9434   YY=             -7.5941   ZZ=            -21.3494
   XY=             -0.0000   XZ=             -0.0000   YZ=              0.0000
 Octapole moment (field-independent basis, Debye-Ang**2):
  XXX=              0.0000  YYY=              0.0000  ZZZ=           -125.8363  XYY=              0.0000
  XXY=              0.0000  XXZ=              3.9147  XZZ=              0.0000  YZZ=              0.0000
  YYZ=             36.5087  XYZ=              0.0000
 Hexadecapole moment (field-independent basis, Debye-Ang**3):
 XXXX=            -58.2018 YYYY=          -1087.8622 ZZZZ=          -1024.4227 XXXY=             -0.0000
 XXXZ=             -0.0000 YYYX=             -0.0000 YYYZ=             -0.0000 ZZZX=             -0.0000
 ZZZY=              0.0000 XXYY=           -166.6604 XXZZ=           -107.2418 YYZZ=           -281.4801
 XXYZ=              0.0000 YYXZ=             -0.0000 ZZXY=             -0.0000
 N-N= 1.018439709602D+02 E-N=-2.668805127391D+03  KE= 1.026134584867D+03
 Symmetry A1   KE= 5.096009260702D+02
 Symmetry A2   KE= 4.536994305385D+01
 Symmetry B1   KE= 5.097153589019D+01
 Symmetry B2   KE= 4.201921798524D+02
 1\1\GINC-HELIOS\SP\RCCSD-FC\Aug-CC-pVTZ\Cl2F1Li1(2-)\POHL\30-May-2025\
 0\\# CCSD/aug-cc-pVTZ SP\\Single-point energy of X- + Y- at fixed dist
 ance R\\-2,1\F,0,0.,0.,3.8\Cl,0,-2.14,0.,0.\Li,0,0.,0.,0.\Cl,0,2.14,0.
 ,0.\\Version=EM64L-G16RevB.01\State=1-A1\HF=-1026.059701\MP2=-1026.770
 5561\MP3=-1026.7930022\MP4D=-1026.8074978\MP4DQ=-1026.7925135\MP4SDQ=-
 1026.7985123\CCSD=-1026.7943721\RMSD=4.970e-09\PG=C02V [C2(Li1F1),SGV(
 Cl2)]\\@


 IF NO USE IS MADE OF THE LABOR OF PAST AGES,
 THE WORLD MUST REMAIN ALWAYS IN THE INFANCY OF KNOWLEDGE.

                          -- CICERO
 Job cpu time:       0 days  0 hours 10 minutes 37.0 seconds.
 Elapsed time:       0 days  0 hours  1 minutes  4.0 seconds.
 File lengths (MBytes):  RWF=   1144 Int=      0 D2E=      0 Chk=      4 Scr=      1
 Normal termination of Gaussian 16 at Fri May 30 10:29:06 2025.
