 Entering Gaussian System, Link 0=g16
 Initial command:
 /opt/g16/l1.exe "/home/pohl/scratches/g16/Gau-2119983.inp" -scrdir="/home/pohl/scratches/g16/"
 Entering Link 1 = /opt/g16/l1.exe PID=   2119985.
  
 Copyright (c) 1988-2017, Gaussian, Inc.  All Rights Reserved.
  
 This is part of the Gaussian(R) 16 program.  It is based on
 the Gaussian(R) 09 system (copyright 2009, Gaussian, Inc.),
 the Gaussian(R) 03 system (copyright 2003, Gaussian, Inc.),
 the Gaussian(R) 98 system (copyright 1998, Gaussian, Inc.),
 the Gaussian(R) 94 system (copyright 1995, Gaussian, Inc.),
 the Gaussian 92(TM) system (copyright 1992, Gaussian, Inc.),
 the Gaussian 90(TM) system (copyright 1990, Gaussian, Inc.),
 the Gaussian 88(TM) system (copyright 1988, Gaussian, Inc.),
 the Gaussian 86(TM) system (copyright 1986, Carnegie Mellon
 University), and the Gaussian 82(TM) system (copyright 1983,
 Carnegie Mellon University). Gaussian is a federally registered
 trademark of Gaussian, Inc.
  
 This software contains proprietary and confidential information,
 including trade secrets, belonging to Gaussian, Inc.
  
 This software is provided under written license and may be
 used, copied, transmitted, or stored only in accord with that
 written license.
  
 The following legend is applicable only to US Government
 contracts under FAR:
  
                    RESTRICTED RIGHTS LEGEND
  
 Use, reproduction and disclosure by the US Government is
 subject to restrictions as set forth in subparagraphs (a)
 and (c) of the Commercial Computer Software - Restricted
 Rights clause in FAR 52.227-19.
  
 Gaussian, Inc.
 340 Quinnipiac St., Bldg. 40, Wallingford CT 06492
  
  
 ---------------------------------------------------------------
 Warning -- This program may not be used in any manner that
 competes with the business of Gaussian, Inc. or will provide
 assistance to any competitor of Gaussian, Inc.  The licensee
 of this program is prohibited from giving any competitor of
 Gaussian, Inc. access to this program.  By using this program,
 the user acknowledges that Gaussian, Inc. is engaged in the
 business of creating and licensing software in the field of
 computational chemistry and represents and warrants to the
 licensee that it is not a competitor of Gaussian, Inc. and that
 it will not use this program in any manner prohibited above.
 ---------------------------------------------------------------
  

 Cite this work as:
 Gaussian 16, Revision B.01,
 M. J. Frisch, G. W. Trucks, H. B. Schlegel, G. E. Scuseria, 
 M. A. Robb, J. R. Cheeseman, G. Scalmani, V. Barone, 
 G. A. Petersson, H. Nakatsuji, X. Li, M. Caricato, A. V. Marenich, 
 J. Bloino, B. G. Janesko, R. Gomperts, B. Mennucci, H. P. Hratchian, 
 J. V. Ortiz, A. F. Izmaylov, J. L. Sonnenberg, D. Williams-Young, 
 F. Ding, F. Lipparini, F. Egidi, J. Goings, B. Peng, A. Petrone, 
 T. Henderson, D. Ranasinghe, V. G. Zakrzewski, J. Gao, N. Rega, 
 G. Zheng, W. Liang, M. Hada, M. Ehara, K. Toyota, R. Fukuda, 
 J. Hasegawa, M. Ishida, T. Nakajima, Y. Honda, O. Kitao, H. Nakai, 
 T. Vreven, K. Throssell, J. A. Montgomery, Jr., J. E. Peralta, 
 F. Ogliaro, M. J. Bearpark, J. J. Heyd, E. N. Brothers, K. N. Kudin, 
 V. N. Staroverov, T. A. Keith, R. Kobayashi, J. Normand, 
 K. Raghavachari, A. P. Rendell, J. C. Burant, S. S. Iyengar, 
 J. Tomasi, M. Cossi, J. M. Millam, M. Klene, C. Adamo, R. Cammi, 
 J. W. Ochterski, R. L. Martin, K. Morokuma, O. Farkas, 
 J. B. Foresman, and D. J. Fox, Gaussian, Inc., Wallingford CT, 2016.
 
 ******************************************
 Gaussian 16:  EM64L-G16RevB.01 20-Dec-2017
                30-May-2025 
 ******************************************
 %mem=30GB
 %nprocshared=10
 Will use up to   10 processors via shared memory.
 ---------------------
 # CCSD/aug-cc-pVTZ SP
 ---------------------
 1/38=1,172=1/1;
 2/12=2,17=6,18=5,40=1/2;
 3/5=16,6=1,7=10,11=9,25=1,30=1/1,2,3;
 4//1;
 5/5=2,38=5/2;
 8/6=4,9=120000,10=1/1,4;
 9/5=7/13;
 6/7=2,8=2,9=2,10=2/1;
 99/5=1,9=1/99;
 --------------------------------------------------
 Single-point energy of X- + Y- at fixed distance R
 --------------------------------------------------
 Symbolic Z-matrix:
 Charge = -2 Multiplicity = 1
 F                     0.        0.        4. 
 Cl                   -2.14      0.        0. 
 Li                    0.        0.        0. 
 Cl                    2.14      0.        0. 
 
                          Input orientation:                          
 ---------------------------------------------------------------------
 Center     Atomic      Atomic             Coordinates (Angstroms)
 Number     Number       Type             X           Y           Z
 ---------------------------------------------------------------------
      1          9           0        0.000000    0.000000    4.000000
      2         17           0       -2.140000    0.000000    0.000000
      3          3           0        0.000000    0.000000    0.000000
      4         17           0        2.140000    0.000000    0.000000
 ---------------------------------------------------------------------
                    Distance matrix (angstroms):
                    1          2          3          4
     1  F    0.000000
     2  Cl   4.536474   0.000000
     3  Li   4.000000   2.140000   0.000000
     4  Cl   4.536474   4.280000   2.140000   0.000000
 Stoichiometry    Cl2FLi(2-)
 Framework group  C2V[C2(LiF),SGV(Cl2)]
 Deg. of freedom     3
 Full point group                 C2V     NOp   4
 Largest Abelian subgroup         C2V     NOp   4
 Largest concise Abelian subgroup C2      NOp   2
                         Standard orientation:                         
 ---------------------------------------------------------------------
 Center     Atomic      Atomic             Coordinates (Angstroms)
 Number     Number       Type             X           Y           Z
 ---------------------------------------------------------------------
      1          9           0        0.000000    0.000000    3.217391
      2         17           0       -0.000000    2.140000   -0.782609
      3          3           0       -0.000000    0.000000   -0.782609
      4         17           0       -0.000000   -2.140000   -0.782609
 ---------------------------------------------------------------------
 Rotational constants (GHZ):           2.0730277           1.5778956           0.8959436
 Standard basis: Aug-CC-pVTZ (5D, 7F)
 There are    88 symmetry adapted cartesian basis functions of A1  symmetry.
 There are    29 symmetry adapted cartesian basis functions of A2  symmetry.
 There are    45 symmetry adapted cartesian basis functions of B1  symmetry.
 There are    66 symmetry adapted cartesian basis functions of B2  symmetry.
 There are    71 symmetry adapted basis functions of A1  symmetry.
 There are    27 symmetry adapted basis functions of A2  symmetry.
 There are    39 symmetry adapted basis functions of B1  symmetry.
 There are    55 symmetry adapted basis functions of B2  symmetry.
   192 basis functions,   374 primitive gaussians,   228 cartesian basis functions
    24 alpha electrons       24 beta electrons
       nuclear repulsion energy       100.2209665309 Hartrees.
 NAtoms=    4 NActive=    4 NUniq=    3 SFac= 1.78D+00 NAtFMM=   60 NAOKFM=F Big=F
 Integral buffers will be    131072 words long.
 Raffenetti 1 integral format.
 Two-electron integral symmetry is turned on.
 One-electron integrals computed using PRISM.
 NBasis=   192 RedAO= T EigKep=  1.11D-04  NBF=    71    27    39    55
 NBsUse=   192 1.00D-06 EigRej= -1.00D+00 NBFU=    71    27    39    55
 ExpMin= 7.59D-03 ExpMax= 4.56D+05 ExpMxC= 1.44D+03 IAcc=3 IRadAn=         5 AccDes= 0.00D+00
 Harris functional with IExCor=  205 and IRadAn=       5 diagonalized for initial guess.
 HarFok:  IExCor=  205 AccDes= 0.00D+00 IRadAn=         5 IDoV= 1 UseB2=F ITyADJ=14
 ICtDFT=  3500011 ScaDFX=  1.000000  1.000000  1.000000  1.000000
 FoFCou: FMM=F IPFlag=           0 FMFlag=      100000 FMFlg1=           0
         NFxFlg=           0 DoJE=T BraDBF=F KetDBF=T FulRan=T
         wScrn=  0.000000 ICntrl=       500 IOpCl=  0 I1Cent=   200000004 NGrid=           0
         NMat0=    1 NMatS0=      1 NMatT0=    0 NMatD0=    1 NMtDS0=    0 NMtDT0=    0
 Petite list used in FoFCou.
 Initial guess orbital symmetries:
       Occupied  (A1) (B2) (A1) (A1) (B2) (B2) (A1) (A1) (B1) (B2)
                 (A2) (A1) (A1) (B2) (A1) (A1) (B2) (B1) (B2) (A1)
                 (B1) (A1) (B2) (A2)
       Virtual   (A1) (A1) (B1) (B2) (A1) (A1) (B1) (A1) (B1) (B2)
                 (A1) (B2) (A2) (A1) (B1) (B2) (A1) (A1) (B1) (B2)
                 (A2) (A1) (B2) (A1) (B1) (B2) (A2) (A1) (B1) (B2)
                 (B2) (A1) (A1) (A2) (B2) (B1) (A1) (B2) (B1) (A1)
                 (B1) (A1) (B2) (A2) (A1) (A1) (B1) (B1) (A1) (A2)
                 (B2) (A1) (B2) (B2) (B2) (A2) (B1) (A1) (A1) (A2)
                 (B2) (A1) (B1) (A2) (B2) (A1) (B1) (B2) (A1) (A2)
                 (A1) (B1) (B1) (A1) (B2) (A1) (B1) (A2) (B2) (A1)
                 (B2) (A2) (A1) (B2) (B1) (A1) (A2) (B2) (B2) (B1)
                 (A1) (B1) (A1) (B1) (B2) (A1) (A1) (B1) (A1) (A2)
                 (B2) (B2) (A2) (B2) (A1) (A1) (B2) (B1) (A1) (A2)
                 (B2) (B2) (A2) (B1) (A1) (A1) (B2) (B2) (A2) (A2)
                 (A1) (B1) (B2) (A1) (A1) (B1) (B2) (A2) (B1) (B1)
                 (A1) (A1) (B2) (A1) (A2) (A1) (B2) (B1) (A1) (B2)
                 (B1) (A1) (B1) (A1) (A2) (B2) (A2) (B2) (B2) (A1)
                 (B1) (B2) (A1) (B2) (A1) (B1) (B2) (A2) (A1) (B1)
                 (A1) (B2) (A2) (A1) (B1) (B2) (A1) (A1)
 The electronic state of the initial guess is 1-A1.
 Keep R1 ints in memory in symmetry-blocked form, NReq=215097955.
 Requested convergence on RMS density matrix=1.00D-08 within 128 cycles.
 Requested convergence on MAX density matrix=1.00D-06.
 Requested convergence on             energy=1.00D-06.
 No special actions if energy rises.
 SCF Done:  E(RHF) =  -1026.06223651     A.U. after   11 cycles
            NFock= 11  Conv=0.45D-08     -V/T= 1.9999
 ExpMin= 7.59D-03 ExpMax= 4.56D+05 ExpMxC= 1.44D+03 IAcc=3 IRadAn=         5 AccDes= 0.00D+00
 HarFok:  IExCor=  205 AccDes= 0.00D+00 IRadAn=         5 IDoV=-2 UseB2=F ITyADJ=14
 ICtDFT= 12500011 ScaDFX=  1.000000  1.000000  1.000000  1.000000
 Range of M.O.s used for correlation:    13   192
 NBasis=   192 NAE=    24 NBE=    24 NFC=    12 NFV=     0
 NROrb=    180 NOA=    12 NOB=    12 NVA=   168 NVB=   168

 **** Warning!!: The largest alpha MO coefficient is  0.34962183D+02

 Semi-Direct transformation.
 ModeAB=           4 MOrb=            12 LenV=    4025516753
 LASXX=      8444399 LTotXX=     8444399 LenRXX=    17045430
 LTotAB=     8601031 MaxLAS=    34432560 LenRXY=           0
 NonZer=    25489829 LenScr=    39014400 LnRSAI=    34432560
 LnScr1=    52416512 LExtra=           0 Total=    142908902
 MaxDsk=          -1 SrtSym=           T ITran=            4
 JobTyp=0 Pass  1:  I=   1 to  12.
 (rs|ai) integrals will be sorted in core.
 Spin components of T(2) and E(2):
     alpha-alpha T2 =       0.3061653849D-01 E2=     -0.9107911560D-01
     alpha-beta  T2 =       0.1620596139D+00 E2=     -0.5285106052D+00
     beta-beta   T2 =       0.3061653849D-01 E2=     -0.9107911560D-01
 ANorm=    0.1106025628D+01
 E2 =    -0.7106688364D+00 EUMP2 =    -0.10267729053420D+04
 Keep R2 and R3 ints in memory in symmetry-blocked form, NReq=215104941.
 CIDS: In Core Option IDoMem=           1.
 Iterations=  50 Convergence= 0.100D-06
 Produce multiple copies of IABC intergrals
 Iteration Nr.   1
 **********************
 DD1Dir will call FoFMem   1 times, MxPair=       156
 NAB=    78 NAA=     0 NBB=     0.
 MP4(R+Q)=  0.14961131D-01
 E3=       -0.22455491D-01        EUMP3=      -0.10267953608D+04
 E4(DQ)=    0.46646894D-03        UMP4(DQ)=   -0.10267948944D+04
 E4(SDQ)=  -0.55084449D-02        UMP4(SDQ)=  -0.10268008693D+04
 DE(Corr)= -0.71761909     E(Corr)=     -1026.7798556    
 NORM(A)=   0.11111434D+01
 Iteration Nr.   2
 **********************
 DD1Dir will call FoFMem   1 times, MxPair=       156
 NAB=    78 NAA=     0 NBB=     0.
 DE(Corr)= -0.73438677     E(CORR)=     -1026.7966233     Delta=-1.68D-02
 NORM(A)=   0.11160863D+01
 Iteration Nr.   3
 **********************
 DD1Dir will call FoFMem   1 times, MxPair=       156
 NAB=    78 NAA=     0 NBB=     0.
 DE(Corr)= -0.73272853     E(CORR)=     -1026.7949650     Delta= 1.66D-03
 NORM(A)=   0.11179091D+01
 Iteration Nr.   4
 **********************
 DD1Dir will call FoFMem   1 times, MxPair=       156
 NAB=    78 NAA=     0 NBB=     0.
 DE(Corr)= -0.73432379     E(CORR)=     -1026.7965603     Delta=-1.60D-03
 NORM(A)=   0.11184523D+01
 Iteration Nr.   5
 **********************
 DD1Dir will call FoFMem   1 times, MxPair=       156
 NAB=    78 NAA=     0 NBB=     0.
 DE(Corr)= -0.73447370     E(CORR)=     -1026.7967102     Delta=-1.50D-04
 NORM(A)=   0.11187216D+01
 Iteration Nr.   6
 **********************
 DD1Dir will call FoFMem   1 times, MxPair=       156
 NAB=    78 NAA=     0 NBB=     0.
 DE(Corr)= -0.73449388     E(CORR)=     -1026.7967304     Delta=-2.02D-05
 NORM(A)=   0.11188510D+01
 Iteration Nr.   7
 **********************
 DD1Dir will call FoFMem   1 times, MxPair=       156
 NAB=    78 NAA=     0 NBB=     0.
 DE(Corr)= -0.73449488     E(CORR)=     -1026.7967314     Delta=-9.96D-07
 NORM(A)=   0.11188878D+01
 Iteration Nr.   8
 **********************
 DD1Dir will call FoFMem   1 times, MxPair=       156
 NAB=    78 NAA=     0 NBB=     0.
 DE(Corr)= -0.73450707     E(CORR)=     -1026.7967436     Delta=-1.22D-05
 NORM(A)=   0.11189042D+01
 Iteration Nr.   9
 **********************
 DD1Dir will call FoFMem   1 times, MxPair=       156
 NAB=    78 NAA=     0 NBB=     0.
 DE(Corr)= -0.73449624     E(CORR)=     -1026.7967327     Delta= 1.08D-05
 NORM(A)=   0.11189204D+01
 Iteration Nr.  10
 **********************
 DD1Dir will call FoFMem   1 times, MxPair=       156
 NAB=    78 NAA=     0 NBB=     0.
 DE(Corr)= -0.73449775     E(CORR)=     -1026.7967343     Delta=-1.51D-06
 NORM(A)=   0.11189198D+01
 Iteration Nr.  11
 **********************
 DD1Dir will call FoFMem   1 times, MxPair=       156
 NAB=    78 NAA=     0 NBB=     0.
 DE(Corr)= -0.73449711     E(CORR)=     -1026.7967336     Delta= 6.47D-07
 NORM(A)=   0.11189191D+01
 Iteration Nr.  12
 **********************
 DD1Dir will call FoFMem   1 times, MxPair=       156
 NAB=    78 NAA=     0 NBB=     0.
 DE(Corr)= -0.73449547     E(CORR)=     -1026.7967320     Delta= 1.64D-06
 NORM(A)=   0.11189173D+01
 Iteration Nr.  13
 **********************
 DD1Dir will call FoFMem   1 times, MxPair=       156
 NAB=    78 NAA=     0 NBB=     0.
 DE(Corr)= -0.73449483     E(CORR)=     -1026.7967313     Delta= 6.40D-07
 NORM(A)=   0.11189154D+01
 Iteration Nr.  14
 **********************
 DD1Dir will call FoFMem   1 times, MxPair=       156
 NAB=    78 NAA=     0 NBB=     0.
 DE(Corr)= -0.73449483     E(CORR)=     -1026.7967313     Delta= 1.81D-09
 NORM(A)=   0.11189141D+01
 Iteration Nr.  15
 **********************
 DD1Dir will call FoFMem   1 times, MxPair=       156
 NAB=    78 NAA=     0 NBB=     0.
 DE(Corr)= -0.73449464     E(CORR)=     -1026.7967312     Delta= 1.82D-07
 NORM(A)=   0.11189134D+01
 Iteration Nr.  16
 **********************
 DD1Dir will call FoFMem   1 times, MxPair=       156
 NAB=    78 NAA=     0 NBB=     0.
 DE(Corr)= -0.73449457     E(CORR)=     -1026.7967311     Delta= 7.77D-08
 NORM(A)=   0.11189128D+01
 Iteration Nr.  17
 **********************
 DD1Dir will call FoFMem   1 times, MxPair=       156
 NAB=    78 NAA=     0 NBB=     0.
 DE(Corr)= -0.73449455     E(CORR)=     -1026.7967311     Delta= 2.03D-08
 NORM(A)=   0.11189125D+01
 Iteration Nr.  18
 **********************
 DD1Dir will call FoFMem   1 times, MxPair=       156
 NAB=    78 NAA=     0 NBB=     0.
 DE(Corr)= -0.73449453     E(CORR)=     -1026.7967310     Delta= 1.48D-08
 NORM(A)=   0.11189123D+01
 Wavefunction amplitudes converged. E(Corr)=     -1026.7967310    
 Largest amplitude= 3.23D-02
 Discarding MO integrals.

 **********************************************************************

            Population analysis using the SCF Density.

 **********************************************************************

 Orbital symmetries:
       Occupied  (B2) (A1) (A1) (B2) (A1) (B2) (A1) (B1) (A2) (A1)
                 (B2) (A1) (A1) (B2) (A1) (B2) (A1) (B1) (A1) (A2)
                 (B2) (B2) (B1) (A1)
       Virtual   (A1) (B1) (B2) (A1) (A1) (B1) (B2) (A1) (A1) (B2)
                 (B1) (A2) (B1) (A1) (B2) (A1) (A2) (B2) (A1) (B1)
                 (A1) (A1) (B2) (A1) (B2) (B1) (A2) (A1) (B2) (B1)
                 (A1) (A1) (B2) (B1) (B1) (A1) (A2) (B2) (A1) (B1)
                 (A1) (B2) (B1) (A2) (B2) (A1) (A1) (A2) (B2) (A1)
                 (B1) (B2) (A1) (B2) (A1) (B1) (A2) (B2) (A1) (A2)
                 (B2) (B1) (A1) (A2) (B2) (B2) (B1) (A1) (B1) (A1)
                 (A1) (B1) (A1) (A2) (A1) (B1) (B2) (A2) (B2) (A2)
                 (A1) (B2) (A1) (B2) (A2) (B2) (A1) (B1) (B2) (A1)
                 (B1) (B1) (A1) (B1) (A1) (B2) (A1) (B1) (A1) (A2)
                 (B2) (B2) (A2) (B2) (A1) (A1) (B2) (B1) (A1) (A2)
                 (B2) (A2) (B2) (B1) (A1) (A1) (B2) (A2) (B2) (A1)
                 (A1) (B1) (A2) (B2) (A2) (A1) (B1) (B2) (A1) (B1)
                 (A1) (B2) (B1) (A2) (A1) (B1) (A1) (A1) (B2) (B1)
                 (B2) (A1) (B1) (A2) (A1) (B2) (A2) (B2) (B2) (A1)
                 (B1) (B2) (A1) (B2) (A1) (B1) (B2) (A2) (A1) (B1)
                 (A1) (B2) (A2) (A1) (B1) (B2) (A1) (A1)
 The electronic state is 1-A1.
 Alpha  occ. eigenvalues -- -104.47518-104.47518 -25.73528 -10.20033 -10.20033
 Alpha  occ. eigenvalues --   -7.66654  -7.66653  -7.66640  -7.66640  -7.66635
 Alpha  occ. eigenvalues --   -7.66635  -2.12684  -0.97748  -0.71557  -0.71412
 Alpha  occ. eigenvalues --   -0.14844  -0.14513  -0.12824  -0.12607  -0.12324
 Alpha  occ. eigenvalues --   -0.12130  -0.08239  -0.08235  -0.08220
 Alpha virt. eigenvalues --    0.14866   0.15965   0.16137   0.18660   0.25893
 Alpha virt. eigenvalues --    0.26651   0.28013   0.29383   0.31999   0.32429
 Alpha virt. eigenvalues --    0.34460   0.34800   0.36449   0.36503   0.37161
 Alpha virt. eigenvalues --    0.37850   0.40299   0.41684   0.42679   0.42939
 Alpha virt. eigenvalues --    0.43544   0.47235   0.49768   0.52774   0.55845
 Alpha virt. eigenvalues --    0.55937   0.57626   0.58036   0.58480   0.58657
 Alpha virt. eigenvalues --    0.60333   0.62180   0.62272   0.62508   0.64388
 Alpha virt. eigenvalues --    0.65895   0.66257   0.68349   0.71299   0.71477
 Alpha virt. eigenvalues --    0.72831   0.72840   0.74084   0.75105   0.76028
 Alpha virt. eigenvalues --    0.76519   0.79098   0.81404   0.82777   0.83157
 Alpha virt. eigenvalues --    0.84848   0.90103   0.90233   1.01281   1.10531
 Alpha virt. eigenvalues --    1.10690   1.12303   1.12434   1.12494   1.16906
 Alpha virt. eigenvalues --    1.17489   1.19434   1.20330   1.21338   1.21667
 Alpha virt. eigenvalues --    1.22611   1.23020   1.23646   1.24585   1.26029
 Alpha virt. eigenvalues --    1.26821   1.29887   1.31630   1.33151   1.36000
 Alpha virt. eigenvalues --    1.39164   1.40003   1.42483   1.43031   1.43638
 Alpha virt. eigenvalues --    1.44463   1.45410   1.47937   1.49433   1.50406
 Alpha virt. eigenvalues --    1.52231   1.54662   1.54912   1.60376   1.61178
 Alpha virt. eigenvalues --    1.61479   1.63309   1.64750   1.64933   1.66955
 Alpha virt. eigenvalues --    1.67349   1.74479   1.77973   1.82125   1.83731
 Alpha virt. eigenvalues --    1.84387   1.98465   2.04209   2.04935   2.21869
 Alpha virt. eigenvalues --    2.38246   2.39610   2.89705   2.90331   2.95091
 Alpha virt. eigenvalues --    2.95437   2.98142   2.98354   2.99840   3.01092
 Alpha virt. eigenvalues --    3.06282   3.10430   3.21272   3.21955   3.34991
 Alpha virt. eigenvalues --    3.35807   3.36260   3.38729   3.39843   3.39977
 Alpha virt. eigenvalues --    3.40127   3.40182   3.42142   3.42312   3.42407
 Alpha virt. eigenvalues --    3.42459   3.43038   3.43070   3.43247   3.43827
 Alpha virt. eigenvalues --    3.44343   3.44368   3.45594   3.45972   3.46710
 Alpha virt. eigenvalues --    3.49517   3.51788   3.54343   3.56468   3.56651
 Alpha virt. eigenvalues --    3.58169   3.69565   3.70372   3.87709   4.46896
 Alpha virt. eigenvalues --    5.78807   5.80114   5.82770   6.90779   7.46701
 Alpha virt. eigenvalues --    9.36660   9.36670   9.36760   9.36834   9.36923
 Alpha virt. eigenvalues --    9.37265   9.37550   9.84714   9.85092   9.86459
 Alpha virt. eigenvalues --    9.88682   9.90941  11.57428
          Condensed to atoms (all electrons):
               1          2          3          4
     1  F   10.017898  -0.001499  -0.008024  -0.001499
     2  Cl  -0.001499  17.654360   0.152022  -0.019055
     3  Li  -0.008024   0.152022   2.125450   0.152022
     4  Cl  -0.001499  -0.019055   0.152022  17.654360
 Mulliken charges:
               1
     1  F   -1.006876
     2  Cl  -0.785827
     3  Li   0.578531
     4  Cl  -0.785827
 Sum of Mulliken charges =  -2.00000
 Mulliken charges with hydrogens summed into heavy atoms:
               1
     1  F   -1.006876
     2  Cl  -0.785827
     3  Li   0.578531
     4  Cl  -0.785827
 Electronic spatial extent (au):  <R**2>=           1127.9587
 Charge=             -2.0000 electrons
 Dipole moment (field-independent basis, Debye):
    X=              0.0000    Y=              0.0000    Z=            -10.4893  Tot=             10.4893
 Quadrupole moment (field-independent basis, Debye-Ang):
   XX=            -40.4089   YY=            -76.6242   ZZ=            -95.8841
   XY=             -0.0000   XZ=             -0.0000   YZ=              0.0000
 Traceless Quadrupole moment (field-independent basis, Debye-Ang):
   XX=             30.5635   YY=             -5.6518   ZZ=            -24.9117
   XY=             -0.0000   XZ=             -0.0000   YZ=              0.0000
 Octapole moment (field-independent basis, Debye-Ang**2):
  XXX=              0.0000  YYY=              0.0000  ZZZ=           -148.5445  XYY=              0.0000
  XXY=              0.0000  XXZ=              3.9600  XZZ=              0.0000  YZZ=              0.0000
  YYZ=             37.4221  XYZ=              0.0000
 Hexadecapole moment (field-independent basis, Debye-Ang**3):
 XXXX=            -57.9703 YYYY=          -1082.5824 ZZZZ=          -1178.3108 XXXY=             -0.0000
 XXXZ=             -0.0000 YYYX=             -0.0000 YYYZ=             -0.0000 ZZZX=             -0.0000
 ZZZY=              0.0000 XXYY=           -166.1584 XXZZ=           -116.3976 YYZZ=           -292.2079
 XXYZ=             -0.0000 YYXZ=             -0.0000 ZZXY=             -0.0000
 N-N= 1.002209665309D+02 E-N=-2.665385970359D+03  KE= 1.026136033306D+03
 Symmetry A1   KE= 5.096013076342D+02
 Symmetry A2   KE= 4.537226910260D+01
 Symmetry B1   KE= 5.097350724613D+01
 Symmetry B2   KE= 4.201889493229D+02
 1\1\GINC-HELIOS\SP\RCCSD-FC\Aug-CC-pVTZ\Cl2F1Li1(2-)\POHL\30-May-2025\
 0\\# CCSD/aug-cc-pVTZ SP\\Single-point energy of X- + Y- at fixed dist
 ance R\\-2,1\F,0,0.,0.,4.\Cl,0,-2.14,0.,0.\Li,0,0.,0.,0.\Cl,0,2.14,0.,
 0.\\Version=EM64L-G16RevB.01\State=1-A1\HF=-1026.0622365\MP2=-1026.772
 9053\MP3=-1026.7953608\MP4D=-1026.8098555\MP4DQ=-1026.7948944\MP4SDQ=-
 1026.8008693\CCSD=-1026.796731\RMSD=4.456e-09\PG=C02V [C2(Li1F1),SGV(C
 l2)]\\@


 DEFINE YOUR TERMS, YOU WILL PERMIT ME AGAIN TO SAY, 
 OR WE SHALL NEVER UNDERSTAND ONE ANOTHER.

                                    -- VOLTAIRE
 Job cpu time:       0 days  0 hours 10 minutes 38.7 seconds.
 Elapsed time:       0 days  0 hours  1 minutes  4.1 seconds.
 File lengths (MBytes):  RWF=   1139 Int=      0 D2E=      0 Chk=      4 Scr=      1
 Normal termination of Gaussian 16 at Fri May 30 10:31:12 2025.
