[Molden Format]
[Atoms] Angs
O       1       8    -1.15900000    -0.72900000     0.00000000
O       2       8     0.00000000     0.00000000     0.00000000
O       3       8     1.15900000    -0.72900000     0.00000000
[GTO]
  1 0
s  8 1.00
   1.5330000000E+04   5.0800000000E-04
   2.2990000000E+03   3.9290000000E-03
   5.2240000000E+02   2.0243000000E-02
   1.4730000000E+02   7.9181000000E-02
   4.7550000000E+01   2.3068700000E-01
   1.6760000000E+01   4.3311800000E-01
   6.2070000000E+00   3.5026000000E-01
   6.8820000000E-01  -8.1540000000E-03
s  8 1.00
   1.5330000000E+04  -1.1500000000E-04
   2.2990000000E+03  -8.9500000000E-04
   5.2240000000E+02  -4.6360000000E-03
   1.4730000000E+02  -1.8724000000E-02
   4.7550000000E+01  -5.8463000000E-02
   1.6760000000E+01  -1.3646300000E-01
   6.2070000000E+00  -1.7574000000E-01
   6.8820000000E-01   6.0341800000E-01
s  1 1.00
   1.7520000000E+00   1.0000000000E+00
s  1 1.00
   2.3840000000E-01   1.0000000000E+00
s  1 1.00
   7.3760000000E-02   1.0000000000E+00
p  3 1.00
   3.4460000000E+01   1.5928000000E-02
   7.7490000000E+00   9.9740000000E-02
   2.2800000000E+00   3.1049200000E-01
p  1 1.00
   7.1560000000E-01   1.0000000000E+00
p  1 1.00
   2.1400000000E-01   1.0000000000E+00
p  1 1.00
   5.9740000000E-02   1.0000000000E+00
d  1 1.00
   2.3140000000E+00   1.0000000000E+00
d  1 1.00
   6.4500000000E-01   1.0000000000E+00
d  1 1.00
   2.1400000000E-01   1.0000000000E+00
f  1 1.00
   1.4280000000E+00   1.0000000000E+00
f  1 1.00
   5.0000000000E-01   1.0000000000E+00
 
  2 0
s  8 1.00
   1.5330000000E+04   5.0800000000E-04
   2.2990000000E+03   3.9290000000E-03
   5.2240000000E+02   2.0243000000E-02
   1.4730000000E+02   7.9181000000E-02
   4.7550000000E+01   2.3068700000E-01
   1.6760000000E+01   4.3311800000E-01
   6.2070000000E+00   3.5026000000E-01
   6.8820000000E-01  -8.1540000000E-03
s  8 1.00
   1.5330000000E+04  -1.1500000000E-04
   2.2990000000E+03  -8.9500000000E-04
   5.2240000000E+02  -4.6360000000E-03
   1.4730000000E+02  -1.8724000000E-02
   4.7550000000E+01  -5.8463000000E-02
   1.6760000000E+01  -1.3646300000E-01
   6.2070000000E+00  -1.7574000000E-01
   6.8820000000E-01   6.0341800000E-01
s  1 1.00
   1.7520000000E+00   1.0000000000E+00
s  1 1.00
   2.3840000000E-01   1.0000000000E+00
s  1 1.00
   7.3760000000E-02   1.0000000000E+00
p  3 1.00
   3.4460000000E+01   1.5928000000E-02
   7.7490000000E+00   9.9740000000E-02
   2.2800000000E+00   3.1049200000E-01
p  1 1.00
   7.1560000000E-01   1.0000000000E+00
p  1 1.00
   2.1400000000E-01   1.0000000000E+00
p  1 1.00
   5.9740000000E-02   1.0000000000E+00
d  1 1.00
   2.3140000000E+00   1.0000000000E+00
d  1 1.00
   6.4500000000E-01   1.0000000000E+00
d  1 1.00
   2.1400000000E-01   1.0000000000E+00
f  1 1.00
   1.4280000000E+00   1.0000000000E+00
f  1 1.00
   5.0000000000E-01   1.0000000000E+00
 
  3 0
s  8 1.00
   1.5330000000E+04   5.0800000000E-04
   2.2990000000E+03   3.9290000000E-03
   5.2240000000E+02   2.0243000000E-02
   1.4730000000E+02   7.9181000000E-02
   4.7550000000E+01   2.3068700000E-01
   1.6760000000E+01   4.3311800000E-01
   6.2070000000E+00   3.5026000000E-01
   6.8820000000E-01  -8.1540000000E-03
s  8 1.00
   1.5330000000E+04  -1.1500000000E-04
   2.2990000000E+03  -8.9500000000E-04
   5.2240000000E+02  -4.6360000000E-03
   1.4730000000E+02  -1.8724000000E-02
   4.7550000000E+01  -5.8463000000E-02
   1.6760000000E+01  -1.3646300000E-01
   6.2070000000E+00  -1.7574000000E-01
   6.8820000000E-01   6.0341800000E-01
s  1 1.00
   1.7520000000E+00   1.0000000000E+00
s  1 1.00
   2.3840000000E-01   1.0000000000E+00
s  1 1.00
   7.3760000000E-02   1.0000000000E+00
p  3 1.00
   3.4460000000E+01   1.5928000000E-02
   7.7490000000E+00   9.9740000000E-02
   2.2800000000E+00   3.1049200000E-01
p  1 1.00
   7.1560000000E-01   1.0000000000E+00
p  1 1.00
   2.1400000000E-01   1.0000000000E+00
p  1 1.00
   5.9740000000E-02   1.0000000000E+00
d  1 1.00
   2.3140000000E+00   1.0000000000E+00
d  1 1.00
   6.4500000000E-01   1.0000000000E+00
d  1 1.00
   2.1400000000E-01   1.0000000000E+00
f  1 1.00
   1.4280000000E+00   1.0000000000E+00
f  1 1.00
   5.0000000000E-01   1.0000000000E+00
 
 
[MO]
Ene=    -2.04901E+01
Spin= Alpha
Occup=   1.0000000000
   1      -0.00155008
   2       0.00001848
   3       0.00029960
   4      -0.00672517
   5      -0.00413230
   6       0.00005325
   7       0.00001559
   8       0.00000000
   9      -0.00061462
  10      -0.00039152
  11      -0.00000000
  12      -0.00377623
  13      -0.00157343
  14      -0.00000000
  15      -0.00086484
  16      -0.00052550
  17      -0.00000000
  18       0.00008462
  19       0.00007796
  20       0.00005756
  21      -0.00000148
  22      -0.00000000
  23       0.00000000
  24      -0.00023615
  25       0.00026460
  26       0.00062375
  27      -0.00058766
  28      -0.00000000
  29      -0.00000000
  30      -0.00097272
  31       0.00022612
  32       0.00039859
  33      -0.00072859
  34      -0.00000000
  35      -0.00000000
  36      -0.00007910
  37       0.00005825
  38       0.00000000
  39      -0.00005479
  40      -0.00021197
  41       0.00000000
  42       0.00011738
  43       0.00004470
  44       0.00000000
  45       0.00000000
  46      -0.00034651
  47      -0.00013109
  48       0.00000000
  49      -0.00010415
  50      -0.00030704
  51       0.00000000
  52      -0.00000389
  53      -0.00001478
  54       0.00000000
  55      -0.00000000
  56      -0.97281977
  57       0.00975394
  58      -0.04721984
  59       0.02741556
  60       0.00984037
  61      -0.00000000
  62       0.00319102
  63       0.00000000
  64       0.00000000
  65      -0.00791710
  66      -0.00000000
  67      -0.00000000
  68      -0.00836231
  69      -0.00000000
  70      -0.00000000
  71      -0.00093438
  72       0.00000000
  73      -0.00337702
  74      -0.00335715
  75      -0.00228325
  76       0.00000000
  77       0.00000000
  78      -0.00000000
  79      -0.00696194
  80      -0.00805710
  81      -0.00860749
  82      -0.00000000
  83      -0.00000000
  84       0.00000000
  85      -0.00114414
  86      -0.00160195
  87      -0.00334340
  88       0.00000000
  89      -0.00000000
  90      -0.00000000
  91      -0.00000000
  92       0.00320728
  93       0.00000000
  94      -0.00000000
  95       0.00136033
  96      -0.00000000
  97      -0.00000000
  98       0.00144119
  99       0.00000000
 100      -0.00000000
 101      -0.00000000
 102       0.00286063
 103       0.00000000
 104       0.00000000
 105       0.00068092
 106       0.00000000
 107      -0.00000000
 108       0.00147166
 109      -0.00000000
 110       0.00000000
 111      -0.00155008
 112       0.00001848
 113       0.00029960
 114      -0.00672517
 115      -0.00413230
 116      -0.00005325
 117       0.00001559
 118      -0.00000000
 119       0.00061462
 120      -0.00039152
 121       0.00000000
 122       0.00377623
 123      -0.00157343
 124       0.00000000
 125       0.00086484
 126      -0.00052550
 127      -0.00000000
 128       0.00008462
 129       0.00007796
 130       0.00005756
 131       0.00000148
 132       0.00000000
 133      -0.00000000
 134      -0.00023615
 135       0.00026460
 136       0.00062375
 137       0.00058766
 138       0.00000000
 139      -0.00000000
 140      -0.00097272
 141       0.00022612
 142       0.00039859
 143       0.00072859
 144      -0.00000000
 145       0.00000000
 146       0.00007910
 147       0.00005825
 148      -0.00000000
 149       0.00005479
 150      -0.00021197
 151      -0.00000000
 152      -0.00011738
 153       0.00004470
 154      -0.00000000
 155       0.00000000
 156       0.00034651
 157      -0.00013109
 158      -0.00000000
 159       0.00010415
 160      -0.00030704
 161      -0.00000000
 162       0.00000389
 163      -0.00001478
 164      -0.00000000
 165      -0.00000000
Ene=    -2.03357E+01
Spin= Alpha
Occup=   1.0000000000
   1      -0.68761840
   2       0.00651984
   3      -0.03436723
   4       0.01823975
   5       0.00768714
   6      -0.00189716
   7      -0.00112292
   8      -0.00000000
   9       0.00491279
  10       0.00288188
  11       0.00000000
  12       0.00562720
  13       0.00303602
  14      -0.00000000
  15       0.00094869
  16       0.00084703
  17      -0.00000000
  18      -0.00211794
  19      -0.00211825
  20      -0.00178229
  21      -0.00002548
  22      -0.00000000
  23       0.00000000
  24      -0.00518882
  25      -0.00592788
  26      -0.00626199
  27       0.00075819
  28      -0.00000000
  29       0.00000000
  30      -0.00113519
  31      -0.00219791
  32      -0.00277576
  33       0.00106575
  34      -0.00000000
  35      -0.00000000
  36      -0.00183911
  37      -0.00109649
  38      -0.00000000
  39      -0.00084815
  40      -0.00043014
  41      -0.00000000
  42      -0.00088194
  43      -0.00050323
  44      -0.00000000
  45       0.00000000
  46      -0.00127701
  47      -0.00083537
  48      -0.00000000
  49      -0.00056786
  50       0.00002187
  51      -0.00000000
  52      -0.00085011
  53      -0.00043319
  54      -0.00000000
  55      -0.00000000
  56      -0.00000000
  57       0.00000000
  58      -0.00000000
  59       0.00000000
  60       0.00000000
  61      -0.00015523
  62       0.00000000
  63      -0.00000000
  64       0.00160799
  65      -0.00000000
  66       0.00000000
  67       0.00665035
  68      -0.00000000
  69       0.00000000
  70       0.00296788
  71      -0.00000000
  72       0.00000000
  73      -0.00000000
  74      -0.00000000
  75      -0.00000000
  76       0.00004842
  77       0.00000000
  78       0.00000000
  79       0.00000000
  80      -0.00000000
  81      -0.00000000
  82      -0.00148592
  83      -0.00000000
  84      -0.00000000
  85       0.00000000
  86       0.00000000
  87      -0.00000000
  88      -0.00191676
  89      -0.00000000
  90      -0.00000000
  91       0.00008057
  92       0.00000000
  93      -0.00000000
  94       0.00008408
  95      -0.00000000
  96      -0.00000000
  97      -0.00021831
  98       0.00000000
  99      -0.00000000
 100      -0.00000000
 101       0.00087000
 102       0.00000000
 103      -0.00000000
 104       0.00060537
 105      -0.00000000
 106      -0.00000000
 107       0.00003139
 108       0.00000000
 109      -0.00000000
 110       0.00000000
 111       0.68761857
 112      -0.00651984
 113       0.03436724
 114      -0.01823975
 115      -0.00768714
 116      -0.00189716
 117       0.00112292
 118       0.00000000
 119       0.00491279
 120      -0.00288189
 121      -0.00000000
 122       0.00562720
 123      -0.00303602
 124       0.00000000
 125       0.00094869
 126      -0.00084703
 127       0.00000000
 128       0.00211795
 129       0.00211826
 130       0.00178229
 131      -0.00002548
 132       0.00000000
 133      -0.00000000
 134       0.00518883
 135       0.00592788
 136       0.00626199
 137       0.00075819
 138      -0.00000000
 139       0.00000000
 140       0.00113519
 141       0.00219791
 142       0.00277576
 143       0.00106575
 144      -0.00000000
 145       0.00000000
 146      -0.00183911
 147       0.00109649
 148       0.00000000
 149      -0.00084815
 150       0.00043014
 151       0.00000000
 152      -0.00088194
 153       0.00050323
 154       0.00000000
 155       0.00000000
 156      -0.00127701
 157       0.00083537
 158       0.00000000
 159      -0.00056786
 160      -0.00002187
 161       0.00000000
 162      -0.00085011
 163       0.00043319
 164       0.00000000
 165      -0.00000000
Ene=    -2.03356E+01
Spin= Alpha
Occup=   1.0000000000
   1      -0.68743459
   2       0.00686173
   3      -0.03382641
   4       0.01807090
   5       0.00363125
   6      -0.00185584
   7      -0.00121774
   8       0.00000000
   9       0.00489749
  10       0.00320934
  11      -0.00000000
  12       0.00646366
  13       0.00459778
  14      -0.00000000
  15       0.00053060
  16       0.00031686
  17       0.00000000
  18      -0.00205721
  19      -0.00205406
  20      -0.00170522
  21      -0.00003596
  22       0.00000000
  23      -0.00000000
  24      -0.00450309
  25      -0.00516079
  26      -0.00560004
  27       0.00088220
  28      -0.00000000
  29      -0.00000000
  30       0.00012239
  31      -0.00078055
  32      -0.00167401
  33       0.00143895
  34      -0.00000000
  35      -0.00000000
  36      -0.00183722
  37      -0.00124636
  38       0.00000000
  39      -0.00077875
  40      -0.00048533
  41       0.00000000
  42      -0.00086133
  43      -0.00057885
  44       0.00000000
  45       0.00000000
  46      -0.00121358
  47      -0.00111001
  48       0.00000000
  49      -0.00043265
  50      -0.00003442
  51       0.00000000
  52      -0.00078813
  53      -0.00057245
  54       0.00000000
  55      -0.00000000
  56       0.00230885
  57      -0.00005199
  58       0.00044403
  59      -0.01642409
  60      -0.00552248
  61      -0.00000000
  62      -0.00015973
  63      -0.00000000
  64       0.00000000
  65       0.00127896
  66       0.00000000
  67       0.00000000
  68       0.00613713
  69       0.00000000
  70       0.00000000
  71       0.00071140
  72       0.00000000
  73       0.00014502
  74       0.00007990
  75       0.00005406
  76       0.00000000
  77      -0.00000000
  78       0.00000000
  79      -0.00137480
  80       0.00000872
  81       0.00080183
  82      -0.00000000
  83      -0.00000000
  84      -0.00000000
  85      -0.00372257
  86      -0.00092399
  87       0.00015441
  88      -0.00000000
  89       0.00000000
  90      -0.00000000
  91       0.00000000
  92      -0.00029441
  93      -0.00000000
  94       0.00000000
  95       0.00029088
  96      -0.00000000
  97      -0.00000000
  98      -0.00020344
  99      -0.00000000
 100       0.00000000
 101       0.00000000
 102      -0.00014096
 103      -0.00000000
 104       0.00000000
 105       0.00084077
 106       0.00000000
 107       0.00000000
 108      -0.00011973
 109       0.00000000
 110      -0.00000000
 111      -0.68743443
 112       0.00686173
 113      -0.03382640
 114       0.01807090
 115       0.00363125
 116       0.00185584
 117      -0.00121774
 118       0.00000000
 119      -0.00489748
 120       0.00320934
 121      -0.00000000
 122      -0.00646366
 123       0.00459778
 124      -0.00000000
 125      -0.00053060
 126       0.00031686
 127       0.00000000
 128      -0.00205721
 129      -0.00205406
 130      -0.00170522
 131       0.00003596
 132      -0.00000000
 133      -0.00000000
 134      -0.00450309
 135      -0.00516078
 136      -0.00560004
 137      -0.00088220
 138       0.00000000
 139      -0.00000000
 140       0.00012239
 141      -0.00078055
 142      -0.00167401
 143      -0.00143895
 144       0.00000000
 145      -0.00000000
 146       0.00183722
 147      -0.00124636
 148       0.00000000
 149       0.00077875
 150      -0.00048533
 151       0.00000000
 152       0.00086133
 153      -0.00057885
 154       0.00000000
 155      -0.00000000
 156       0.00121358
 157      -0.00111001
 158       0.00000000
 159       0.00043265
 160      -0.00003442
 161      -0.00000000
 162       0.00078813
 163      -0.00057245
 164       0.00000000
 165       0.00000000
Ene=    -1.27052E+00
Spin= Alpha
Occup=   1.0000000000
   1      -0.00642007
   2       0.22271467
   3       0.05732253
   4       0.13678474
   5       0.00182878
   6       0.04026038
   7       0.02244303
   8      -0.00000000
   9       0.04893228
  10       0.02641205
  11       0.00000000
  12       0.01280579
  13       0.01296861
  14       0.00000000
  15      -0.00091083
  16      -0.00111632
  17      -0.00000000
  18       0.00397621
  19       0.00041656
  20      -0.00291576
  21       0.00374429
  22       0.00000000
  23       0.00000000
  24       0.01128642
  25      -0.00235937
  26      -0.00846889
  27       0.01152936
  28      -0.00000000
  29      -0.00000000
  30      -0.00152550
  31       0.00022513
  32      -0.00086316
  33       0.00139248
  34      -0.00000000
  35      -0.00000000
  36       0.00505992
  37       0.00069724
  38      -0.00000000
  39       0.00210173
  40       0.00409372
  41      -0.00000000
  42      -0.00009918
  43       0.00000024
  44      -0.00000000
  45       0.00000000
  46       0.00583928
  47      -0.00028507
  48      -0.00000000
  49       0.00181658
  50       0.00335286
  51      -0.00000000
  52       0.00129748
  53       0.00037703
  54      -0.00000000
  55      -0.00000000
  56      -0.00633099
  57       0.39833669
  58       0.09917625
  59       0.20949156
  60       0.01569258
  61       0.00000000
  62      -0.04309714
  63       0.00000000
  64       0.00000000
  65      -0.05053555
  66      -0.00000000
  67       0.00000000
  68      -0.00466292
  69      -0.00000000
  70       0.00000000
  71       0.00126086
  72       0.00000000
  73       0.00528642
  74       0.00181504
  75      -0.00890703
  76      -0.00000000
  77      -0.00000000
  78      -0.00000000
  79       0.00679749
  80      -0.00401023
  81      -0.02281442
  82      -0.00000000
  83       0.00000000
  84      -0.00000000
  85      -0.02034000
  86      -0.01109297
  87      -0.00910181
  88      -0.00000000
  89      -0.00000000
  90       0.00000000
  91      -0.00000000
  92      -0.00233168
  93       0.00000000
  94      -0.00000000
  95      -0.00710069
  96       0.00000000
  97       0.00000000
  98       0.00009400
  99       0.00000000
 100       0.00000000
 101      -0.00000000
 102       0.00157934
 103       0.00000000
 104       0.00000000
 105      -0.00209704
 106       0.00000000
 107       0.00000000
 108      -0.00039587
 109       0.00000000
 110      -0.00000000
 111      -0.00642007
 112       0.22271467
 113       0.05732253
 114       0.13678474
 115       0.00182878
 116      -0.04026038
 117       0.02244303
 118       0.00000000
 119      -0.04893228
 120       0.02641205
 121      -0.00000000
 122      -0.01280579
 123       0.01296861
 124       0.00000000
 125       0.00091083
 126      -0.00111632
 127       0.00000000
 128       0.00397621
 129       0.00041656
 130      -0.00291576
 131      -0.00374429
 132      -0.00000000
 133       0.00000000
 134       0.01128642
 135      -0.00235937
 136      -0.00846889
 137      -0.01152936
 138       0.00000000
 139      -0.00000000
 140      -0.00152550
 141       0.00022513
 142      -0.00086316
 143      -0.00139248
 144      -0.00000000
 145       0.00000000
 146      -0.00505992
 147       0.00069724
 148       0.00000000
 149      -0.00210173
 150       0.00409372
 151       0.00000000
 152       0.00009918
 153       0.00000024
 154       0.00000000
 155       0.00000000
 156      -0.00583928
 157      -0.00028507
 158      -0.00000000
 159      -0.00181658
 160       0.00335286
 161      -0.00000000
 162      -0.00129748
 163       0.00037703
 164      -0.00000000
 165       0.00000000
Ene=    -1.02063E+00
Spin= Alpha
Occup=   1.0000000000
   1      -0.00679154
   2       0.35725323
   3       0.09392203
   4       0.23529505
   5       0.03034611
   6       0.01818178
   7       0.01992131
   8      -0.00000000
   9       0.02274581
  10       0.02519621
  11       0.00000000
  12       0.00545167
  13       0.00585264
  14      -0.00000000
  15       0.00119818
  16       0.00213095
  17      -0.00000000
  18       0.00280815
  19       0.00143241
  20      -0.00256125
  21       0.00263445
  22       0.00000000
  23      -0.00000000
  24       0.00110345
  25       0.00064719
  26      -0.00932072
  27       0.00857263
  28       0.00000000
  29       0.00000000
  30      -0.00587993
  31      -0.00389486
  32      -0.00470213
  33      -0.00109322
  34      -0.00000000
  35      -0.00000000
  36       0.00224423
  37       0.00095660
  38      -0.00000000
  39       0.00201590
  40       0.00312747
  41      -0.00000000
  42      -0.00004956
  43       0.00002675
  44      -0.00000000
  45       0.00000000
  46      -0.00126738
  47       0.00211350
  48      -0.00000000
  49       0.00137636
  50       0.00172563
  51      -0.00000000
  52      -0.00023833
  53       0.00072883
  54      -0.00000000
  55      -0.00000000
  56       0.00000000
  57       0.00000000
  58       0.00000000
  59       0.00000000
  60      -0.00000000
  61      -0.12151417
  62      -0.00000000
  63      -0.00000000
  64      -0.13339166
  65      -0.00000000
  66       0.00000000
  67      -0.04291351
  68      -0.00000000
  69       0.00000000
  70       0.00673855
  71       0.00000000
  72      -0.00000000
  73       0.00000000
  74       0.00000000
  75      -0.00000000
  76       0.00835586
  77      -0.00000000
  78      -0.00000000
  79       0.00000000
  80       0.00000000
  81      -0.00000000
  82       0.02529189
  83       0.00000000
  84      -0.00000000
  85       0.00000000
  86       0.00000000
  87       0.00000000
  88       0.00638089
  89      -0.00000000
  90      -0.00000000
  91      -0.01257666
  92      -0.00000000
  93       0.00000000
  94      -0.00520074
  95      -0.00000000
  96       0.00000000
  97      -0.00070325
  98      -0.00000000
  99       0.00000000
 100       0.00000000
 101      -0.00700040
 102       0.00000000
 103      -0.00000000
 104      -0.00809608
 105       0.00000000
 106      -0.00000000
 107      -0.00320604
 108       0.00000000
 109      -0.00000000
 110      -0.00000000
 111       0.00679154
 112      -0.35725323
 113      -0.09392203
 114      -0.23529505
 115      -0.03034611
 116       0.01818178
 117      -0.01992131
 118      -0.00000000
 119       0.02274581
 120      -0.02519621
 121       0.00000000
 122       0.00545167
 123      -0.00585264
 124      -0.00000000
 125       0.00119818
 126      -0.00213095
 127       0.00000000
 128      -0.00280815
 129      -0.00143241
 130       0.00256125
 131       0.00263445
 132      -0.00000000
 133      -0.00000000
 134      -0.00110345
 135      -0.00064719
 136       0.00932072
 137       0.00857263
 138       0.00000000
 139       0.00000000
 140       0.00587993
 141       0.00389486
 142       0.00470213
 143      -0.00109322
 144       0.00000000
 145      -0.00000000
 146       0.00224423
 147      -0.00095660
 148      -0.00000000
 149       0.00201590
 150      -0.00312747
 151       0.00000000
 152      -0.00004956
 153      -0.00002675
 154       0.00000000
 155      -0.00000000
 156      -0.00126738
 157      -0.00211350
 158       0.00000000
 159       0.00137636
 160      -0.00172563
 161      -0.00000000
 162      -0.00023833
 163      -0.00072883
 164      -0.00000000
 165       0.00000000
Ene=    -7.46565E-01
Spin= Alpha
Occup=   1.0000000000
   1       0.00240574
   2      -0.30367265
   3      -0.08401369
   4      -0.24539426
   5      -0.05944101
   6       0.04457019
   7       0.04203725
   8       0.00000000
   9       0.04547309
  10       0.04348914
  11      -0.00000000
  12       0.02492969
  13       0.01977479
  14      -0.00000000
  15      -0.00476737
  16      -0.00345188
  17       0.00000000
  18      -0.00029957
  19      -0.00120386
  20      -0.00063562
  21       0.00286374
  22       0.00000000
  23       0.00000000
  24       0.00354566
  25       0.00045801
  26       0.00044950
  27       0.00774933
  28       0.00000000
  29       0.00000000
  30       0.00659502
  31       0.00248558
  32       0.00369300
  33       0.00299492
  34      -0.00000000
  35       0.00000000
  36       0.00320741
  37       0.00257509
  38       0.00000000
  39       0.00242155
  40       0.00297537
  41       0.00000000
  42       0.00048667
  43       0.00058983
  44       0.00000000
  45       0.00000000
  46       0.00487154
  47       0.00329680
  48       0.00000000
  49       0.00249562
  50       0.00348799
  51       0.00000000
  52       0.00059825
  53       0.00093911
  54       0.00000000
  55      -0.00000000
  56       0.00043207
  57       0.36129161
  58       0.09672867
  59       0.29433459
  60       0.09669685
  61       0.00000000
  62       0.08282186
  63       0.00000000
  64       0.00000000
  65       0.08850207
  66       0.00000000
  67      -0.00000000
  68       0.04253980
  69      -0.00000000
  70      -0.00000000
  71      -0.00565639
  72      -0.00000000
  73       0.00047391
  74       0.00144817
  75      -0.00259493
  76      -0.00000000
  77       0.00000000
  78      -0.00000000
  79      -0.00605293
  80      -0.00525878
  81      -0.00971985
  82      -0.00000000
  83       0.00000000
  84       0.00000000
  85      -0.01704396
  86      -0.00888386
  87      -0.01413326
  88       0.00000000
  89      -0.00000000
  90       0.00000000
  91       0.00000000
  92       0.00523670
  93      -0.00000000
  94      -0.00000000
  95       0.00271122
  96       0.00000000
  97       0.00000000
  98       0.00132143
  99      -0.00000000
 100      -0.00000000
 101       0.00000000
 102       0.01092217
 103      -0.00000000
 104       0.00000000
 105       0.00461590
 106      -0.00000000
 107       0.00000000
 108       0.00353360
 109      -0.00000000
 110      -0.00000000
 111       0.00240574
 112      -0.30367265
 113      -0.08401369
 114      -0.24539426
 115      -0.05944101
 116      -0.04457019
 117       0.04203725
 118       0.00000000
 119      -0.04547309
 120       0.04348914
 121      -0.00000000
 122      -0.02492969
 123       0.01977479
 124       0.00000000
 125       0.00476737
 126      -0.00345188
 127       0.00000000
 128      -0.00029957
 129      -0.00120386
 130      -0.00063562
 131      -0.00286374
 132      -0.00000000
 133       0.00000000
 134       0.00354566
 135       0.00045801
 136       0.00044950
 137      -0.00774933
 138      -0.00000000
 139      -0.00000000
 140       0.00659502
 141       0.00248558
 142       0.00369300
 143      -0.00299492
 144      -0.00000000
 145       0.00000000
 146      -0.00320741
 147       0.00257509
 148       0.00000000
 149      -0.00242155
 150       0.00297537
 151      -0.00000000
 152      -0.00048667
 153       0.00058983
 154       0.00000000
 155      -0.00000000
 156      -0.00487154
 157       0.00329680
 158      -0.00000000
 159      -0.00249562
 160       0.00348799
 161      -0.00000000
 162      -0.00059825
 163       0.00093911
 164      -0.00000000
 165       0.00000000
Ene=    -4.28469E-01
Spin= Alpha
Occup=   1.0000000000
   1       0.00017783
   2      -0.08492226
   3      -0.02582967
   4      -0.10581505
   5      -0.03047890
   6       0.14846675
   7      -0.05685239
   8      -0.00000000
   9       0.17214341
  10      -0.06364338
  11       0.00000000
  12       0.08801894
  13      -0.05317222
  14       0.00000000
  15       0.01366746
  16      -0.00595031
  17      -0.00000000
  18       0.00479157
  19      -0.00406842
  20      -0.00218066
  21       0.00171349
  22       0.00000000
  23       0.00000000
  24       0.01824612
  25      -0.01162975
  26      -0.00575028
  27       0.00569673
  28       0.00000000
  29       0.00000000
  30      -0.00378739
  31      -0.00587229
  32      -0.00368955
  33       0.00159099
  34       0.00000000
  35       0.00000000
  36       0.01264409
  37      -0.00402522
  38      -0.00000000
  39       0.00137330
  40       0.00185659
  41      -0.00000000
  42       0.00153804
  43      -0.00114261
  44      -0.00000000
  45       0.00000000
  46       0.01739185
  47      -0.00408436
  48      -0.00000000
  49       0.00382698
  50       0.00158064
  51      -0.00000000
  52       0.00485282
  53      -0.00140546
  54      -0.00000000
  55       0.00000000
  56       0.00157895
  57      -0.03898600
  58      -0.01844701
  59      -0.03543034
  60      -0.02106882
  61       0.00000000
  62      -0.26460546
  63       0.00000000
  64       0.00000000
  65      -0.30169049
  66       0.00000000
  67       0.00000000
  68      -0.18120080
  69       0.00000000
  70       0.00000000
  71      -0.01987355
  72       0.00000000
  73      -0.00269656
  74       0.00315462
  75      -0.00427157
  76      -0.00000000
  77       0.00000000
  78      -0.00000000
  79      -0.01279240
  80       0.01060443
  81      -0.01044195
  82      -0.00000000
  83       0.00000000
  84      -0.00000000
  85       0.00620194
  86      -0.00447681
  87      -0.00115797
  88      -0.00000000
  89       0.00000000
  90       0.00000000
  91       0.00000000
  92      -0.01543076
  93      -0.00000000
  94       0.00000000
  95      -0.01049250
  96      -0.00000000
  97       0.00000000
  98      -0.00307239
  99      -0.00000000
 100      -0.00000000
 101       0.00000000
 102      -0.02159765
 103      -0.00000000
 104       0.00000000
 105      -0.00725458
 106      -0.00000000
 107       0.00000000
 108      -0.00804444
 109      -0.00000000
 110       0.00000000
 111       0.00017783
 112      -0.08492226
 113      -0.02582967
 114      -0.10581505
 115      -0.03047890
 116      -0.14846675
 117      -0.05685239
 118      -0.00000000
 119      -0.17214341
 120      -0.06364338
 121       0.00000000
 122      -0.08801894
 123      -0.05317222
 124       0.00000000
 125      -0.01366746
 126      -0.00595031
 127      -0.00000000
 128       0.00479157
 129      -0.00406842
 130      -0.00218066
 131      -0.00171349
 132       0.00000000
 133       0.00000000
 134       0.01824612
 135      -0.01162975
 136      -0.00575028
 137      -0.00569673
 138      -0.00000000
 139       0.00000000
 140      -0.00378739
 141      -0.00587229
 142      -0.00368955
 143      -0.00159099
 144      -0.00000000
 145      -0.00000000
 146      -0.01264409
 147      -0.00402522
 148      -0.00000000
 149      -0.00137330
 150       0.00185659
 151      -0.00000000
 152      -0.00153804
 153      -0.00114261
 154      -0.00000000
 155       0.00000000
 156      -0.01739185
 157      -0.00408436
 158      -0.00000000
 159      -0.00382698
 160       0.00158064
 161      -0.00000000
 162      -0.00485282
 163      -0.00140546
 164      -0.00000000
 165      -0.00000000