 Molden2AIM, Version 3.1.0 (02/25/2015)           Time: Mon Apr 21 17:42:24 2025
GAUSSIAN            165 MOL ORBITALS    225 PRIMITIVES        3 NUCLEI
  O    1    (CENTRE  1)  -2.19019242 -1.37761025  0.00000000  CHARGE =  8.0
  O    2    (CENTRE  2)   0.00000000  0.00000000  0.00000000  CHARGE =  8.0
  O    3    (CENTRE  3)   2.19019242 -1.37761025  0.00000000  CHARGE =  8.0
CENTRE ASSIGNMENTS    1  1  1  1  1  1  1  1  1  1  1  1  1  1  1  1  1  1  1  1
CENTRE ASSIGNMENTS    1  1  1  1  1  1  1  1  1  1  1  1  1  1  1  1  1  1  1  1
CENTRE ASSIGNMENTS    1  1  1  1  1  1  1  1  1  1  1  1  1  1  1  1  1  1  1  1
CENTRE ASSIGNMENTS    1  1  1  1  1  1  1  1  1  1  1  1  1  1  1  2  2  2  2  2
CENTRE ASSIGNMENTS    2  2  2  2  2  2  2  2  2  2  2  2  2  2  2  2  2  2  2  2
CENTRE ASSIGNMENTS    2  2  2  2  2  2  2  2  2  2  2  2  2  2  2  2  2  2  2  2
CENTRE ASSIGNMENTS    2  2  2  2  2  2  2  2  2  2  2  2  2  2  2  2  2  2  2  2
CENTRE ASSIGNMENTS    2  2  2  2  2  2  2  2  2  2  3  3  3  3  3  3  3  3  3  3
CENTRE ASSIGNMENTS    3  3  3  3  3  3  3  3  3  3  3  3  3  3  3  3  3  3  3  3
CENTRE ASSIGNMENTS    3  3  3  3  3  3  3  3  3  3  3  3  3  3  3  3  3  3  3  3
CENTRE ASSIGNMENTS    3  3  3  3  3  3  3  3  3  3  3  3  3  3  3  3  3  3  3  3
CENTRE ASSIGNMENTS    3  3  3  3  3
TYPE ASSIGNMENTS      1  1  1  1  1  1  1  1  1  1  1  1  1  1  1  1  1  1  1  2
TYPE ASSIGNMENTS      2  2  3  3  3  4  4  4  2  3  4  2  3  4  2  3  4  5  6  7
TYPE ASSIGNMENTS      8  9 10  5  6  7  8  9 10  5  6  7  8  9 10 11 12 13 17 14
TYPE ASSIGNMENTS     15 18 19 16 20 11 12 13 17 14 15 18 19 16 20  1  1  1  1  1
TYPE ASSIGNMENTS      1  1  1  1  1  1  1  1  1  1  1  1  1  1  2  2  2  3  3  3
TYPE ASSIGNMENTS      4  4  4  2  3  4  2  3  4  2  3  4  5  6  7  8  9 10  5  6
TYPE ASSIGNMENTS      7  8  9 10  5  6  7  8  9 10 11 12 13 17 14 15 18 19 16 20
TYPE ASSIGNMENTS     11 12 13 17 14 15 18 19 16 20  1  1  1  1  1  1  1  1  1  1
TYPE ASSIGNMENTS      1  1  1  1  1  1  1  1  1  2  2  2  3  3  3  4  4  4  2  3
TYPE ASSIGNMENTS      4  2  3  4  2  3  4  5  6  7  8  9 10  5  6  7  8  9 10  5
TYPE ASSIGNMENTS      6  7  8  9 10 11 12 13 17 14 15 18 19 16 20 11 12 13 17 14
TYPE ASSIGNMENTS     15 18 19 16 20
EXPONENTS  0.1533000D+05 0.2299000D+04 0.5224000D+03 0.1473000D+03 0.4755000D+02
EXPONENTS  0.1676000D+02 0.6207000D+01 0.6882000D+00 0.1533000D+05 0.2299000D+04
EXPONENTS  0.5224000D+03 0.1473000D+03 0.4755000D+02 0.1676000D+02 0.6207000D+01
EXPONENTS  0.6882000D+00 0.1752000D+01 0.2384000D+00 0.7376000D-01 0.3446000D+02
EXPONENTS  0.7749000D+01 0.2280000D+01 0.3446000D+02 0.7749000D+01 0.2280000D+01
EXPONENTS  0.3446000D+02 0.7749000D+01 0.2280000D+01 0.7156000D+00 0.7156000D+00
EXPONENTS  0.7156000D+00 0.2140000D+00 0.2140000D+00 0.2140000D+00 0.5974000D-01
EXPONENTS  0.5974000D-01 0.5974000D-01 0.2314000D+01 0.2314000D+01 0.2314000D+01
EXPONENTS  0.2314000D+01 0.2314000D+01 0.2314000D+01 0.6450000D+00 0.6450000D+00
EXPONENTS  0.6450000D+00 0.6450000D+00 0.6450000D+00 0.6450000D+00 0.2140000D+00
EXPONENTS  0.2140000D+00 0.2140000D+00 0.2140000D+00 0.2140000D+00 0.2140000D+00
EXPONENTS  0.1428000D+01 0.1428000D+01 0.1428000D+01 0.1428000D+01 0.1428000D+01
EXPONENTS  0.1428000D+01 0.1428000D+01 0.1428000D+01 0.1428000D+01 0.1428000D+01
EXPONENTS  0.5000000D+00 0.5000000D+00 0.5000000D+00 0.5000000D+00 0.5000000D+00
EXPONENTS  0.5000000D+00 0.5000000D+00 0.5000000D+00 0.5000000D+00 0.5000000D+00
EXPONENTS  0.1533000D+05 0.2299000D+04 0.5224000D+03 0.1473000D+03 0.4755000D+02
EXPONENTS  0.1676000D+02 0.6207000D+01 0.6882000D+00 0.1533000D+05 0.2299000D+04
EXPONENTS  0.5224000D+03 0.1473000D+03 0.4755000D+02 0.1676000D+02 0.6207000D+01
EXPONENTS  0.6882000D+00 0.1752000D+01 0.2384000D+00 0.7376000D-01 0.3446000D+02
EXPONENTS  0.7749000D+01 0.2280000D+01 0.3446000D+02 0.7749000D+01 0.2280000D+01
EXPONENTS  0.3446000D+02 0.7749000D+01 0.2280000D+01 0.7156000D+00 0.7156000D+00
EXPONENTS  0.7156000D+00 0.2140000D+00 0.2140000D+00 0.2140000D+00 0.5974000D-01
EXPONENTS  0.5974000D-01 0.5974000D-01 0.2314000D+01 0.2314000D+01 0.2314000D+01
EXPONENTS  0.2314000D+01 0.2314000D+01 0.2314000D+01 0.6450000D+00 0.6450000D+00
EXPONENTS  0.6450000D+00 0.6450000D+00 0.6450000D+00 0.6450000D+00 0.2140000D+00
EXPONENTS  0.2140000D+00 0.2140000D+00 0.2140000D+00 0.2140000D+00 0.2140000D+00
EXPONENTS  0.1428000D+01 0.1428000D+01 0.1428000D+01 0.1428000D+01 0.1428000D+01
EXPONENTS  0.1428000D+01 0.1428000D+01 0.1428000D+01 0.1428000D+01 0.1428000D+01
EXPONENTS  0.5000000D+00 0.5000000D+00 0.5000000D+00 0.5000000D+00 0.5000000D+00
EXPONENTS  0.5000000D+00 0.5000000D+00 0.5000000D+00 0.5000000D+00 0.5000000D+00
EXPONENTS  0.1533000D+05 0.2299000D+04 0.5224000D+03 0.1473000D+03 0.4755000D+02
EXPONENTS  0.1676000D+02 0.6207000D+01 0.6882000D+00 0.1533000D+05 0.2299000D+04
EXPONENTS  0.5224000D+03 0.1473000D+03 0.4755000D+02 0.1676000D+02 0.6207000D+01
EXPONENTS  0.6882000D+00 0.1752000D+01 0.2384000D+00 0.7376000D-01 0.3446000D+02
EXPONENTS  0.7749000D+01 0.2280000D+01 0.3446000D+02 0.7749000D+01 0.2280000D+01
EXPONENTS  0.3446000D+02 0.7749000D+01 0.2280000D+01 0.7156000D+00 0.7156000D+00
EXPONENTS  0.7156000D+00 0.2140000D+00 0.2140000D+00 0.2140000D+00 0.5974000D-01
EXPONENTS  0.5974000D-01 0.5974000D-01 0.2314000D+01 0.2314000D+01 0.2314000D+01
EXPONENTS  0.2314000D+01 0.2314000D+01 0.2314000D+01 0.6450000D+00 0.6450000D+00
EXPONENTS  0.6450000D+00 0.6450000D+00 0.6450000D+00 0.6450000D+00 0.2140000D+00
EXPONENTS  0.2140000D+00 0.2140000D+00 0.2140000D+00 0.2140000D+00 0.2140000D+00
EXPONENTS  0.1428000D+01 0.1428000D+01 0.1428000D+01 0.1428000D+01 0.1428000D+01
EXPONENTS  0.1428000D+01 0.1428000D+01 0.1428000D+01 0.1428000D+01 0.1428000D+01
EXPONENTS  0.5000000D+00 0.5000000D+00 0.5000000D+00 0.5000000D+00 0.5000000D+00
EXPONENTS  0.5000000D+00 0.5000000D+00 0.5000000D+00 0.5000000D+00 0.5000000D+00
MO    1     MO 0.0        OCC NO =    1.0000000  ORB. ENERGY =  -20.490100
 -0.79175307D-03 -0.14757258D-02 -0.25023421D-02 -0.37874113D-02 -0.47255835D-02
 -0.40586460D-02 -0.15581931D-02  0.69698934D-05 -0.35789439D-05 -0.67123979D-05
 -0.11443167D-04 -0.17883443D-04 -0.23913570D-04 -0.25534118D-04 -0.15611059D-04
  0.10299228D-04  0.32516402D-03 -0.16352835D-02 -0.41683830D-03  0.26086510D-03
  0.25295139D-03  0.17063952D-03  0.76373462D-04  0.74056568D-04  0.49958123D-04
  0.00000000D+00  0.00000000D+00  0.00000000D+00 -0.57661335D-03 -0.36730933D-03
 -0.00000000D+00 -0.78345804D-03 -0.32644102D-03 -0.00000000D+00 -0.36408885D-04
 -0.22123016D-04 -0.00000000D+00  0.60466990D-03  0.55707947D-03  0.41130701D-03
 -0.18317562D-04 -0.00000000D+00  0.00000000D+00 -0.18043754D-03  0.20217563D-03
  0.47659504D-03 -0.77772438D-03 -0.00000000D+00 -0.00000000D+00 -0.10780066D-03
  0.25059508D-04  0.44173312D-04 -0.13985481D-03 -0.00000000D+00 -0.00000000D+00
 -0.25957891D-03  0.19115640D-03  0.00000000D+00 -0.40204922D-03 -0.15554366D-02
  0.00000000D+00  0.86133486D-03  0.32800876D-03  0.00000000D+00  0.00000000D+00
 -0.10723899D-03 -0.40570142D-04  0.00000000D+00 -0.72074433D-04 -0.21247944D-03
  0.00000000D+00 -0.26919784D-05 -0.10228134D-04  0.00000000D+00 -0.00000000D+00
 -0.49689889D+00 -0.92615561D+00 -0.15704530D+01 -0.23769538D+01 -0.29657444D+01
 -0.25471789D+01 -0.97791150D+00  0.43742582D-02 -0.18890045D-02 -0.35428748D-02
 -0.60398249D-02 -0.94390706D-02 -0.12621836D-01 -0.13477178D-01 -0.82396825D-02
  0.54360420D-02 -0.51248975D-01  0.66663314D-02  0.99262955D-03 -0.00000000D+00
 -0.00000000D+00 -0.00000000D+00  0.15632408D-01  0.15158178D-01  0.10225617D-01
  0.00000000D+00  0.00000000D+00  0.00000000D+00  0.00000000D+00 -0.74275252D-02
 -0.00000000D+00 -0.00000000D+00 -0.17349364D-02 -0.00000000D+00 -0.00000000D+00
 -0.39336448D-04  0.00000000D+00 -0.24131202D-01 -0.23989217D-01 -0.16315440D-01
  0.00000000D+00  0.00000000D+00 -0.00000000D+00 -0.53194806D-02 -0.61562707D-02
 -0.65768128D-02 -0.00000000D+00 -0.00000000D+00  0.00000000D+00 -0.12679809D-03
 -0.17753440D-03 -0.37052874D-03  0.00000000D+00 -0.00000000D+00 -0.00000000D+00
 -0.00000000D+00  0.10525186D-01  0.00000000D+00 -0.00000000D+00  0.99821064D-02
 -0.00000000D+00 -0.00000000D+00  0.10575457D-01  0.00000000D+00 -0.00000000D+00
 -0.00000000D+00  0.88531668D-03  0.00000000D+00  0.00000000D+00  0.47121386D-03
  0.00000000D+00 -0.00000000D+00  0.10184259D-02 -0.00000000D+00  0.00000000D+00
 -0.79175307D-03 -0.14757258D-02 -0.25023421D-02 -0.37874113D-02 -0.47255835D-02
 -0.40586460D-02 -0.15581931D-02  0.69698934D-05 -0.35789439D-05 -0.67123979D-05
 -0.11443167D-04 -0.17883443D-04 -0.23913570D-04 -0.25534118D-04 -0.15611059D-04
  0.10299228D-04  0.32516402D-03 -0.16352835D-02 -0.41683830D-03 -0.26086510D-03
 -0.25295139D-03 -0.17063952D-03  0.76373462D-04  0.74056568D-04  0.49958123D-04
 -0.00000000D+00 -0.00000000D+00 -0.00000000D+00  0.57661335D-03 -0.36730933D-03
  0.00000000D+00  0.78345804D-03 -0.32644102D-03  0.00000000D+00  0.36408885D-04
 -0.22123016D-04 -0.00000000D+00  0.60466990D-03  0.55707947D-03  0.41130701D-03
  0.18317562D-04  0.00000000D+00 -0.00000000D+00 -0.18043754D-03  0.20217563D-03
  0.47659504D-03  0.77772438D-03  0.00000000D+00 -0.00000000D+00 -0.10780066D-03
  0.25059508D-04  0.44173312D-04  0.13985481D-03 -0.00000000D+00  0.00000000D+00
  0.25957891D-03  0.19115640D-03 -0.00000000D+00  0.40204922D-03 -0.15554366D-02
 -0.00000000D+00 -0.86133486D-03  0.32800876D-03 -0.00000000D+00  0.00000000D+00
  0.10723899D-03 -0.40570142D-04 -0.00000000D+00  0.72074433D-04 -0.21247944D-03
 -0.00000000D+00  0.26919784D-05 -0.10228134D-04 -0.00000000D+00 -0.00000000D+00
MO    2     MO 0.0        OCC NO =    1.0000000  ORB. ENERGY =  -20.335700
 -0.35122315D+00 -0.65463476D+00 -0.11100436D+01 -0.16801028D+01 -0.20962777D+01
 -0.18004230D+01 -0.69121739D+00  0.30918578D-02 -0.12626700D-02 -0.23681689D-02
 -0.40372087D-02 -0.63093714D-02 -0.84368318D-02 -0.90085694D-02 -0.55076627D-02
  0.36336213D-02 -0.37299688D-01  0.44351536D-02  0.77542637D-03 -0.92939498D-02
 -0.90120050D-02 -0.60794453D-02 -0.55010448D-02 -0.53341630D-02 -0.35983948D-02
 -0.00000000D+00 -0.00000000D+00 -0.00000000D+00  0.46089946D-02  0.27036713D-02
  0.00000000D+00  0.11674806D-02  0.62988597D-03 -0.00000000D+00  0.39938885D-04
  0.35659102D-04 -0.00000000D+00 -0.15134183D-01 -0.15136398D-01 -0.12735726D-01
 -0.31535911D-03 -0.00000000D+00  0.00000000D+00 -0.39646747D-02 -0.45293759D-02
 -0.47846627D-02  0.10034082D-02 -0.00000000D+00  0.00000000D+00 -0.12580622D-03
 -0.24358103D-03 -0.30762064D-03  0.20457357D-03 -0.00000000D+00 -0.00000000D+00
 -0.60353245D-02 -0.35983018D-02 -0.00000000D+00 -0.62237277D-02 -0.31563689D-02
 -0.00000000D+00 -0.64716789D-02 -0.36927035D-02 -0.00000000D+00  0.00000000D+00
 -0.39521303D-03 -0.25853291D-03 -0.00000000D+00 -0.39297348D-03  0.15134593D-04
 -0.00000000D+00 -0.58829761D-03 -0.29977843D-03 -0.00000000D+00 -0.00000000D+00
 -0.00000000D+00 -0.00000000D+00 -0.00000000D+00 -0.00000000D+00 -0.00000000D+00
 -0.00000000D+00 -0.00000000D+00  0.00000000D+00 -0.00000000D+00 -0.00000000D+00
 -0.00000000D+00 -0.00000000D+00 -0.00000000D+00 -0.00000000D+00 -0.00000000D+00
  0.00000000D+00 -0.00000000D+00  0.00000000D+00  0.00000000D+00 -0.76045238D-03
 -0.73738300D-03 -0.49743422D-03  0.00000000D+00  0.00000000D+00  0.00000000D+00
 -0.00000000D+00 -0.00000000D+00 -0.00000000D+00  0.15085557D-02 -0.00000000D+00
  0.00000000D+00  0.13797545D-02 -0.00000000D+00  0.00000000D+00  0.12494473D-03
 -0.00000000D+00  0.00000000D+00 -0.00000000D+00 -0.00000000D+00 -0.00000000D+00
  0.59928132D-03  0.00000000D+00  0.00000000D+00  0.00000000D+00 -0.00000000D+00
 -0.00000000D+00 -0.19665048D-02 -0.00000000D+00 -0.00000000D+00  0.00000000D+00
  0.00000000D+00 -0.00000000D+00 -0.36792722D-03 -0.00000000D+00 -0.00000000D+00
  0.26440294D-03  0.00000000D+00 -0.00000000D+00  0.61697934D-03 -0.00000000D+00
 -0.00000000D+00 -0.16019596D-02  0.00000000D+00 -0.00000000D+00 -0.00000000D+00
  0.26925031D-03  0.00000000D+00 -0.00000000D+00  0.41893135D-03 -0.00000000D+00
 -0.00000000D+00  0.21722674D-04  0.00000000D+00 -0.00000000D+00  0.00000000D+00
  0.35122324D+00  0.65463492D+00  0.11100439D+01  0.16801032D+01  0.20962782D+01
  0.18004234D+01  0.69121756D+00 -0.30918586D-02  0.12626700D-02  0.23681689D-02
  0.40372087D-02  0.63093714D-02  0.84368318D-02  0.90085694D-02  0.55076627D-02
 -0.36336213D-02  0.37299699D-01 -0.44351536D-02 -0.77542637D-03 -0.92939498D-02
 -0.90120050D-02 -0.60794453D-02  0.55010448D-02  0.53341630D-02  0.35983948D-02
  0.00000000D+00  0.00000000D+00  0.00000000D+00  0.46089946D-02 -0.27036807D-02
 -0.00000000D+00  0.11674806D-02 -0.62988597D-03  0.00000000D+00  0.39938885D-04
 -0.35659102D-04  0.00000000D+00  0.15134254D-01  0.15136470D-01  0.12735726D-01
 -0.31535911D-03  0.00000000D+00 -0.00000000D+00  0.39646824D-02  0.45293759D-02
  0.47846627D-02  0.10034082D-02 -0.00000000D+00  0.00000000D+00  0.12580622D-03
  0.24358103D-03  0.30762064D-03  0.20457357D-03 -0.00000000D+00  0.00000000D+00
 -0.60353245D-02  0.35983018D-02  0.00000000D+00 -0.62237277D-02  0.31563689D-02
  0.00000000D+00 -0.64716789D-02  0.36927035D-02  0.00000000D+00  0.00000000D+00
 -0.39521303D-03  0.25853291D-03  0.00000000D+00 -0.39297348D-03 -0.15134593D-04
  0.00000000D+00 -0.58829761D-03  0.29977843D-03  0.00000000D+00 -0.00000000D+00
MO    3     MO 0.0        OCC NO =    1.0000000  ORB. ENERGY =  -20.335600
 -0.35112926D+00 -0.65445977D+00 -0.11097469D+01 -0.16796536D+01 -0.20957173D+01
 -0.17999417D+01 -0.69103262D+00  0.30910313D-02 -0.13288824D-02 -0.24923519D-02
 -0.42489135D-02 -0.66402248D-02 -0.88792458D-02 -0.94809644D-02 -0.57964757D-02
  0.38241626D-02 -0.36712721D-01  0.43940962D-02  0.36629579D-03 -0.90915283D-02
 -0.88157242D-02 -0.59470355D-02 -0.59655561D-02 -0.57845827D-02 -0.39022453D-02
  0.00000000D+00  0.00000000D+00  0.00000000D+00  0.45946408D-02  0.30108820D-02
 -0.00000000D+00  0.13410217D-02  0.95390580D-03 -0.00000000D+00  0.22337721D-04
  0.13339484D-04  0.00000000D+00 -0.14700224D-01 -0.14677715D-01 -0.12185006D-01
 -0.44506725D-03  0.00000000D+00 -0.00000000D+00 -0.34407220D-02 -0.39432576D-02
 -0.42788798D-02  0.11675262D-02 -0.00000000D+00 -0.00000000D+00  0.13563741D-04
 -0.86503621D-04 -0.18552037D-03  0.27621031D-03 -0.00000000D+00 -0.00000000D+00
 -0.60291221D-02 -0.40901235D-02  0.00000000D+00 -0.57144703D-02 -0.35613533D-02
  0.00000000D+00 -0.63204426D-02 -0.42476034D-02  0.00000000D+00  0.00000000D+00
 -0.37558252D-03 -0.34352935D-03  0.00000000D+00 -0.29940474D-03 -0.23819510D-04
  0.00000000D+00 -0.54540589D-03 -0.39614987D-03  0.00000000D+00 -0.00000000D+00
  0.11793192D-02  0.21980992D-02  0.37272480D-02  0.56413634D-02  0.70387744D-02
  0.60453685D-02  0.23209345D-02 -0.10381682D-04  0.10068685D-04  0.18884068D-04
  0.32193195D-04  0.50311698D-04  0.67276326D-04  0.71835432D-04  0.43918774D-04
 -0.28974940D-04  0.48191782D-03 -0.39936601D-02 -0.55707020D-03 -0.00000000D+00
 -0.00000000D+00 -0.00000000D+00 -0.78249731D-03 -0.75875918D-03 -0.51185446D-03
 -0.00000000D+00 -0.00000000D+00 -0.00000000D+00  0.00000000D+00  0.11998721D-02
  0.00000000D+00  0.00000000D+00  0.12732762D-02  0.00000000D+00  0.00000000D+00
  0.29949217D-04  0.00000000D+00  0.10362707D-02  0.57094215D-03  0.38629703D-03
  0.00000000D+00 -0.00000000D+00  0.00000000D+00 -0.10504575D-02  0.66627795D-05
  0.61266244D-03 -0.00000000D+00 -0.00000000D+00 -0.00000000D+00 -0.41254985D-03
 -0.10240021D-03  0.17112324D-04 -0.00000000D+00  0.00000000D+00 -0.00000000D+00
  0.00000000D+00 -0.96615204D-03 -0.00000000D+00  0.00000000D+00  0.21344785D-02
 -0.00000000D+00 -0.00000000D+00 -0.14928434D-02 -0.00000000D+00  0.00000000D+00
  0.00000000D+00 -0.43624740D-04 -0.00000000D+00  0.00000000D+00  0.58183410D-03
  0.00000000D+00  0.00000000D+00 -0.82856187D-04  0.00000000D+00 -0.00000000D+00
 -0.35112918D+00 -0.65445961D+00 -0.11097467D+01 -0.16796533D+01 -0.20957169D+01
 -0.17999413D+01 -0.69103246D+00  0.30910306D-02 -0.13288824D-02 -0.24923519D-02
 -0.42489135D-02 -0.66402248D-02 -0.88792458D-02 -0.94809644D-02 -0.57964757D-02
  0.38241626D-02 -0.36712710D-01  0.43940962D-02  0.36629579D-03  0.90915283D-02
  0.88157242D-02  0.59470355D-02 -0.59655561D-02 -0.57845827D-02 -0.39022453D-02
  0.00000000D+00  0.00000000D+00  0.00000000D+00 -0.45946314D-02  0.30108820D-02
 -0.00000000D+00 -0.13410217D-02  0.95390580D-03 -0.00000000D+00 -0.22337721D-04
  0.13339484D-04  0.00000000D+00 -0.14700224D-01 -0.14677715D-01 -0.12185006D-01
  0.44506725D-03 -0.00000000D+00 -0.00000000D+00 -0.34407220D-02 -0.39432499D-02
 -0.42788798D-02 -0.11675262D-02  0.00000000D+00 -0.00000000D+00  0.13563741D-04
 -0.86503621D-04 -0.18552037D-03 -0.27621031D-03  0.00000000D+00 -0.00000000D+00
  0.60291221D-02 -0.40901235D-02  0.00000000D+00  0.57144703D-02 -0.35613533D-02
  0.00000000D+00  0.63204426D-02 -0.42476034D-02  0.00000000D+00 -0.00000000D+00
  0.37558252D-03 -0.34352935D-03  0.00000000D+00  0.29940474D-03 -0.23819510D-04
 -0.00000000D+00  0.54540589D-03 -0.39614987D-03  0.00000000D+00  0.00000000D+00
MO    4     MO 0.0        OCC NO =    1.0000000  ORB. ENERGY =   -1.270520
 -0.32792566D-02 -0.61121124D-02 -0.10364118D-01 -0.15686575D-01 -0.19572265D-01
 -0.16809965D-01 -0.64536726D-02  0.28867674D-04 -0.43132213D-01 -0.80895535D-01
 -0.13790915D+00 -0.21552516D+00 -0.28819821D+00 -0.30772850D+00 -0.18813917D+00
  0.12412280D+00  0.62213698D-01  0.33260397D-01  0.18447488D-03  0.19723057D+00
  0.19124731D+00  0.12901431D+00  0.10994560D+00  0.10661025D+00  0.71918644D-01
 -0.00000000D+00 -0.00000000D+00 -0.00000000D+00  0.45906423D-01  0.24778791D-01
  0.00000000D+00  0.26568295D-02  0.26906099D-02  0.00000000D+00 -0.38345017D-04
 -0.46995937D-04 -0.00000000D+00  0.28412840D-01  0.29766165D-02 -0.20835173D-01
  0.46342070D-01  0.00000000D+00  0.00000000D+00  0.86237303D-02 -0.18027479D-02
 -0.64709113D-02  0.15258252D-01 -0.00000000D+00 -0.00000000D+00 -0.16906191D-03
  0.24949792D-04 -0.95658786D-04  0.26729027D-03 -0.00000000D+00 -0.00000000D+00
  0.16604912D-01  0.22881011D-02 -0.00000000D+00  0.15422502D-01  0.30039732D-01
 -0.00000000D+00 -0.72778319D-03  0.17611209D-05 -0.00000000D+00  0.00000000D+00
  0.18071586D-02 -0.88224352D-04 -0.00000000D+00  0.12571193D-02  0.23202639D-02
 -0.00000000D+00  0.89788896D-03  0.26091429D-03 -0.00000000D+00 -0.00000000D+00
 -0.32337562D-02 -0.60273054D-02 -0.10220313D-01 -0.15468920D-01 -0.19300695D-01
 -0.16576723D-01 -0.63641264D-02  0.28467128D-04 -0.77144191D-01 -0.14468584D+00
 -0.24665764D+00 -0.38547788D+00 -0.51545738D+00 -0.55038831D+00 -0.33649662D+00
  0.22200003D+00  0.10763868D+00  0.50939692D-01  0.15829607D-02  0.00000000D+00
  0.00000000D+00  0.00000000D+00 -0.21112750D+00 -0.20472266D+00 -0.13810470D+00
  0.00000000D+00  0.00000000D+00  0.00000000D+00  0.00000000D+00 -0.47410551D-01
 -0.00000000D+00  0.00000000D+00 -0.96742046D-03 -0.00000000D+00  0.00000000D+00
  0.53080924D-04  0.00000000D+00  0.37775219D-01  0.12969748D-01 -0.63647045D-01
 -0.00000000D+00 -0.00000000D+00 -0.00000000D+00  0.51938277D-02 -0.30641374D-02
 -0.17432047D-01 -0.00000000D+00  0.00000000D+00 -0.00000000D+00 -0.22541588D-02
 -0.12293666D-02 -0.10086984D-02 -0.00000000D+00 -0.00000000D+00  0.00000000D+00
 -0.00000000D+00 -0.76517692D-02  0.00000000D+00 -0.00000000D+00 -0.52104889D-01
  0.00000000D+00  0.00000000D+00  0.68977234D-03  0.00000000D+00  0.00000000D+00
 -0.00000000D+00  0.48877906D-03  0.00000000D+00  0.00000000D+00 -0.14512047D-02
  0.00000000D+00  0.00000000D+00 -0.27395205D-03  0.00000000D+00 -0.00000000D+00
 -0.32792566D-02 -0.61121124D-02 -0.10364118D-01 -0.15686575D-01 -0.19572265D-01
 -0.16809965D-01 -0.64536726D-02  0.28867674D-04 -0.43132213D-01 -0.80895535D-01
 -0.13790915D+00 -0.21552516D+00 -0.28819821D+00 -0.30772850D+00 -0.18813917D+00
  0.12412280D+00  0.62213698D-01  0.33260397D-01  0.18447488D-03 -0.19723057D+00
 -0.19124731D+00 -0.12901431D+00  0.10994560D+00  0.10661025D+00  0.71918644D-01
  0.00000000D+00  0.00000000D+00  0.00000000D+00 -0.45906423D-01  0.24778791D-01
 -0.00000000D+00 -0.26568295D-02  0.26906099D-02  0.00000000D+00  0.38345017D-04
 -0.46995937D-04  0.00000000D+00  0.28412840D-01  0.29766165D-02 -0.20835173D-01
 -0.46342070D-01 -0.00000000D+00  0.00000000D+00  0.86237303D-02 -0.18027479D-02
 -0.64709113D-02 -0.15258252D-01  0.00000000D+00 -0.00000000D+00 -0.16906191D-03
  0.24949792D-04 -0.95658786D-04 -0.26729027D-03 -0.00000000D+00  0.00000000D+00
 -0.16604912D-01  0.22881011D-02  0.00000000D+00 -0.15422502D-01  0.30039732D-01
  0.00000000D+00  0.72778319D-03  0.17611209D-05  0.00000000D+00  0.00000000D+00
 -0.18071586D-02 -0.88224352D-04 -0.00000000D+00 -0.12571193D-02  0.23202639D-02
 -0.00000000D+00 -0.89788896D-03  0.26091429D-03 -0.00000000D+00  0.00000000D+00
MO    5     MO 0.0        OCC NO =    1.0000000  ORB. ENERGY =   -1.020630
 -0.34689969D-02 -0.64657638D-02 -0.10963793D-01 -0.16594211D-01 -0.20704731D-01
 -0.17782603D-01 -0.68270869D-02  0.30537979D-04 -0.69187730D-01 -0.12976330D+00
 -0.22121798D+00 -0.34572065D+00 -0.46229438D+00 -0.49362262D+00 -0.30179119D+00
  0.19910350D+00  0.10193613D+00  0.57214034D-01  0.30611090D-02  0.89070269D-01
  0.86368199D-01  0.58263477D-01  0.97592009D-01  0.94631420D-01  0.63837797D-01
 -0.00000000D+00 -0.00000000D+00 -0.00000000D+00  0.21339263D-01  0.23638136D-01
  0.00000000D+00  0.11310632D-02  0.12142528D-02 -0.00000000D+00  0.50442160D-04
  0.89710829D-04 -0.00000000D+00  0.20066223D-01  0.10235585D-01 -0.18301947D-01
  0.32605879D-01  0.00000000D+00 -0.00000000D+00  0.84312432D-03  0.49450508D-03
 -0.71217778D-02  0.11345239D-01  0.00000000D+00  0.00000000D+00 -0.65163697D-03
 -0.43164370D-03 -0.52110854D-03 -0.20984651D-03 -0.00000000D+00 -0.00000000D+00
  0.73647885D-02  0.31392311D-02 -0.00000000D+00  0.14792681D-01  0.22949386D-01
 -0.00000000D+00 -0.36367146D-03  0.19629160D-03 -0.00000000D+00  0.00000000D+00
 -0.39223271D-03  0.65409256D-03 -0.00000000D+00  0.95247592D-03  0.11941796D-02
 -0.00000000D+00 -0.16493039D-03  0.50436879D-03 -0.00000000D+00 -0.00000000D+00
  0.00000000D+00  0.00000000D+00  0.00000000D+00  0.00000000D+00  0.00000000D+00
  0.00000000D+00  0.00000000D+00 -0.00000000D+00 -0.00000000D+00 -0.00000000D+00
 -0.00000000D+00 -0.00000000D+00 -0.00000000D+00 -0.00000000D+00 -0.00000000D+00
  0.00000000D+00  0.00000000D+00  0.00000000D+00 -0.00000000D+00 -0.59528274D+00
 -0.57722401D+00 -0.38939191D+00 -0.00000000D+00 -0.00000000D+00 -0.00000000D+00
 -0.00000000D+00 -0.00000000D+00 -0.00000000D+00 -0.12514303D+00 -0.00000000D+00
  0.00000000D+00 -0.89033069D-02 -0.00000000D+00  0.00000000D+00  0.28368611D-03
  0.00000000D+00 -0.00000000D+00  0.00000000D+00  0.00000000D+00 -0.00000000D+00
  0.10341823D+00 -0.00000000D+00 -0.00000000D+00  0.00000000D+00  0.00000000D+00
 -0.00000000D+00  0.33471939D-01  0.00000000D+00 -0.00000000D+00  0.00000000D+00
  0.00000000D+00  0.00000000D+00  0.12248290D-02 -0.00000000D+00 -0.00000000D+00
 -0.41272259D-01 -0.00000000D+00  0.00000000D+00 -0.38163049D-01 -0.00000000D+00
  0.00000000D+00 -0.51604510D-02 -0.00000000D+00  0.00000000D+00  0.00000000D+00
 -0.21665056D-02  0.00000000D+00 -0.00000000D+00 -0.56026921D-02  0.00000000D+00
 -0.00000000D+00 -0.22186607D-02  0.00000000D+00 -0.00000000D+00 -0.00000000D+00
  0.34689969D-02  0.64657638D-02  0.10963793D-01  0.16594211D-01  0.20704731D-01
  0.17782603D-01  0.68270869D-02 -0.30537979D-04  0.69187730D-01  0.12976330D+00
  0.22121798D+00  0.34572065D+00  0.46229438D+00  0.49362262D+00  0.30179119D+00
 -0.19910350D+00 -0.10193613D+00 -0.57214034D-01 -0.30611090D-02  0.89070269D-01
  0.86368199D-01  0.58263477D-01 -0.97592009D-01 -0.94631420D-01 -0.63837797D-01
 -0.00000000D+00 -0.00000000D+00 -0.00000000D+00  0.21339263D-01 -0.23638136D-01
  0.00000000D+00  0.11310632D-02 -0.12142528D-02 -0.00000000D+00  0.50442160D-04
 -0.89710829D-04  0.00000000D+00 -0.20066223D-01 -0.10235585D-01  0.18301947D-01
  0.32605879D-01 -0.00000000D+00 -0.00000000D+00 -0.84312432D-03 -0.49450508D-03
  0.71217778D-02  0.11345239D-01  0.00000000D+00  0.00000000D+00  0.65163697D-03
  0.43164370D-03  0.52110854D-03 -0.20984651D-03  0.00000000D+00 -0.00000000D+00
  0.73647885D-02 -0.31392311D-02 -0.00000000D+00  0.14792681D-01 -0.22949386D-01
  0.00000000D+00 -0.36367146D-03 -0.19629160D-03  0.00000000D+00 -0.00000000D+00
 -0.39223271D-03 -0.65409256D-03  0.00000000D+00  0.95247592D-03 -0.11941796D-02
 -0.00000000D+00 -0.16493039D-03 -0.50436879D-03 -0.00000000D+00  0.00000000D+00
MO    6     MO 0.0        OCC NO =    1.0000000  ORB. ENERGY =   -0.746565
  0.12288089D-02  0.22903416D-02  0.38836605D-02  0.58781010D-02  0.73341538D-02
  0.62990600D-02  0.24183316D-02 -0.10817346D-04  0.58811005D-01  0.11030150D+00
  0.18803987D+00  0.29386972D+00  0.39295981D+00  0.41958946D+00  0.25652877D+00
 -0.16924210D+00 -0.91182339D-01 -0.59669745D-01 -0.59960045D-02  0.21834379D+00
  0.21172003D+00  0.14282508D+00  0.20593524D+00  0.19968791D+00  0.13470828D+00
  0.00000000D+00  0.00000000D+00  0.00000000D+00  0.42661141D-01  0.40799874D-01
 -0.00000000D+00  0.51721866D-02  0.41026946D-02 -0.00000000D+00 -0.20070143D-03
 -0.14532064D-03  0.00000000D+00 -0.21406400D-02 -0.86024332D-02 -0.45419556D-02
  0.35443740D-01  0.00000000D+00  0.00000000D+00  0.27091687D-02  0.34995638D-03
  0.34345406D-03  0.10255663D-01  0.00000000D+00  0.00000000D+00  0.73088606D-03
  0.27546175D-03  0.40927279D-03  0.57488293D-03 -0.00000000D+00  0.00000000D+00
  0.10525613D-01  0.84505569D-02  0.00000000D+00  0.17769343D-01  0.21833276D-01
  0.00000000D+00  0.35711862D-02  0.43281746D-02  0.00000000D+00  0.00000000D+00
  0.15076594D-02  0.10203039D-02  0.00000000D+00  0.17270321D-02  0.24137773D-02
  0.00000000D+00  0.41400413D-03  0.64988786D-03  0.00000000D+00 -0.00000000D+00
  0.22069361D-03  0.41134449D-03  0.69750396D-03  0.10557047D-02  0.13172113D-02
  0.11313088D-02  0.43433145D-03 -0.19427912D-05 -0.69969826D-01 -0.13123014D+00
 -0.22371863D+00 -0.34962867D+00 -0.46752014D+00 -0.49920252D+00 -0.30520263D+00
  0.20135416D+00  0.10498225D+00  0.71570011D-01  0.97541201D-02  0.00000000D+00
  0.00000000D+00  0.00000000D+00  0.40573394D+00  0.39342545D+00  0.26540248D+00
  0.00000000D+00  0.00000000D+00  0.00000000D+00  0.00000000D+00  0.83029310D-01
  0.00000000D+00 -0.00000000D+00  0.88257729D-02 -0.00000000D+00 -0.00000000D+00
 -0.23812827D-03 -0.00000000D+00  0.33864230D-02  0.10348201D-01 -0.18542615D-01
 -0.00000000D+00  0.00000000D+00 -0.00000000D+00 -0.46249241D-02 -0.40181298D-02
 -0.74267451D-02 -0.00000000D+00  0.00000000D+00  0.00000000D+00 -0.18888787D-02
 -0.98454431D-03 -0.15663035D-02  0.00000000D+00 -0.00000000D+00  0.00000000D+00
  0.00000000D+00  0.17185043D-01 -0.00000000D+00 -0.00000000D+00  0.19894942D-01
  0.00000000D+00  0.00000000D+00  0.96966581D-02 -0.00000000D+00 -0.00000000D+00
  0.00000000D+00  0.33802272D-02 -0.00000000D+00  0.00000000D+00  0.31943195D-02
 -0.00000000D+00  0.00000000D+00  0.24453405D-02 -0.00000000D+00 -0.00000000D+00
  0.12288089D-02  0.22903416D-02  0.38836605D-02  0.58781010D-02  0.73341538D-02
  0.62990600D-02  0.24183316D-02 -0.10817346D-04  0.58811005D-01  0.11030150D+00
  0.18803987D+00  0.29386972D+00  0.39295981D+00  0.41958946D+00  0.25652877D+00
 -0.16924210D+00 -0.91182339D-01 -0.59669745D-01 -0.59960045D-02 -0.21834379D+00
 -0.21172003D+00 -0.14282508D+00  0.20593524D+00  0.19968791D+00  0.13470828D+00
  0.00000000D+00  0.00000000D+00  0.00000000D+00 -0.42661141D-01  0.40799874D-01
 -0.00000000D+00 -0.51721866D-02  0.41026946D-02  0.00000000D+00  0.20070143D-03
 -0.14532064D-03  0.00000000D+00 -0.21406400D-02 -0.86024332D-02 -0.45419556D-02
 -0.35443740D-01 -0.00000000D+00  0.00000000D+00  0.27091687D-02  0.34995638D-03
  0.34345406D-03 -0.10255663D-01 -0.00000000D+00 -0.00000000D+00  0.73088606D-03
  0.27546175D-03  0.40927279D-03 -0.57488293D-03 -0.00000000D+00  0.00000000D+00
 -0.10525613D-01  0.84505569D-02  0.00000000D+00 -0.17769343D-01  0.21833276D-01
 -0.00000000D+00 -0.35711862D-02  0.43281746D-02  0.00000000D+00 -0.00000000D+00
 -0.15076594D-02  0.10203039D-02 -0.00000000D+00 -0.17270321D-02  0.24137773D-02
 -0.00000000D+00 -0.41400413D-03  0.64988786D-03 -0.00000000D+00  0.00000000D+00
MO    7     MO 0.0        OCC NO =    1.0000000  ORB. ENERGY =   -0.428469
  0.90832375D-04  0.16929986D-03  0.28707647D-03  0.43450361D-03  0.54213364D-03
  0.46562049D-03  0.17876076D-03 -0.79960785D-06  0.16446537D-01  0.30845888D-01
  0.52585476D-01  0.82180863D-01  0.10989147D+00  0.11733847D+00  0.71738442D-01
 -0.47328667D-01 -0.28033642D-01 -0.25729848D-01 -0.30745040D-02  0.72732006D+00
  0.70525580D+00  0.47576140D+00 -0.27851276D+00 -0.27006369D+00 -0.18218337D+00
 -0.00000000D+00 -0.00000000D+00 -0.00000000D+00  0.16149847D+00 -0.59707823D-01
  0.00000000D+00  0.18261373D-01 -0.11031691D-01  0.00000000D+00  0.57538617D-03
 -0.25050200D-03 -0.00000000D+00  0.34239165D-01 -0.29071745D-01 -0.15582362D-01
  0.21207405D-01  0.00000000D+00  0.00000000D+00  0.13941499D-01 -0.88860619D-02
 -0.43936752D-02  0.75391992D-02  0.00000000D+00  0.00000000D+00 -0.41973346D-03
 -0.65079027D-03 -0.40889044D-03  0.30539480D-03  0.00000000D+00  0.00000000D+00
  0.41493541D-01 -0.13209383D-01 -0.00000000D+00  0.10077280D-01  0.13623664D-01
 -0.00000000D+00  0.11286143D-01 -0.83844763D-02 -0.00000000D+00  0.00000000D+00
  0.53824839D-02 -0.12640405D-02 -0.00000000D+00  0.26483669D-02  0.10938428D-02
 -0.00000000D+00  0.33582741D-02 -0.97261385D-03 -0.00000000D+00  0.00000000D+00
  0.80649935D-03  0.15032110D-02  0.25489478D-02  0.38579512D-02  0.48135967D-02
  0.41342376D-02  0.15872142D-02 -0.70997066D-05  0.75502546D-02  0.14160690D-01
  0.24140872D-01  0.37727483D-01  0.50448834D-01  0.53867593D-01  0.32933590D-01
 -0.21727582D-01 -0.20021041D-01 -0.86151948D-02 -0.21252792D-02  0.00000000D+00
  0.00000000D+00  0.00000000D+00 -0.12962691D+01 -0.12569450D+01 -0.84792766D+00
  0.00000000D+00  0.00000000D+00  0.00000000D+00  0.00000000D+00 -0.28303466D+00