 Molden2AIM, Version 3.1.0 (02/25/2015)           Time: Mon Apr 21 17:42:24 2025
GAUSSIAN            165 MOL ORBITALS    225 PRIMITIVES        3 NUCLEI
  O    1    (CENTRE  1)  -2.19019242 -1.37761025  0.00000000  CHARGE =  8.0
  O    2    (CENTRE  2)   0.00000000  0.00000000  0.00000000  CHARGE =  8.0
  O    3    (CENTRE  3)   2.19019242 -1.37761025  0.00000000  CHARGE =  8.0
CENTRE ASSIGNMENTS    1  1  1  1  1  1  1  1  1  1  1  1  1  1  1  1  1  1  1  1
CENTRE ASSIGNMENTS    1  1  1  1  1  1  1  1  1  1  1  1  1  1  1  1  1  1  1  1
CENTRE ASSIGNMENTS    1  1  1  1  1  1  1  1  1  1  1  1  1  1  1  1  1  1  1  1
CENTRE ASSIGNMENTS    1  1  1  1  1  1  1  1  1  1  1  1  1  1  1  2  2  2  2  2
CENTRE ASSIGNMENTS    2  2  2  2  2  2  2  2  2  2  2  2  2  2  2  2  2  2  2  2
CENTRE ASSIGNMENTS    2  2  2  2  2  2  2  2  2  2  2  2  2  2  2  2  2  2  2  2
CENTRE ASSIGNMENTS    2  2  2  2  2  2  2  2  2  2  2  2  2  2  2  2  2  2  2  2
CENTRE ASSIGNMENTS    2  2  2  2  2  2  2  2  2  2  3  3  3  3  3  3  3  3  3  3
CENTRE ASSIGNMENTS    3  3  3  3  3  3  3  3  3  3  3  3  3  3  3  3  3  3  3  3
CENTRE ASSIGNMENTS    3  3  3  3  3  3  3  3  3  3  3  3  3  3  3  3  3  3  3  3
CENTRE ASSIGNMENTS    3  3  3  3  3  3  3  3  3  3  3  3  3  3  3  3  3  3  3  3
CENTRE ASSIGNMENTS    3  3  3  3  3
TYPE ASSIGNMENTS      1  1  1  1  1  1  1  1  1  1  1  1  1  1  1  1  1  1  1  2
TYPE ASSIGNMENTS      2  2  3  3  3  4  4  4  2  3  4  2  3  4  2  3  4  5  6  7
TYPE ASSIGNMENTS      8  9 10  5  6  7  8  9 10  5  6  7  8  9 10 11 12 13 17 14
TYPE ASSIGNMENTS     15 18 19 16 20 11 12 13 17 14 15 18 19 16 20  1  1  1  1  1
TYPE ASSIGNMENTS      1  1  1  1  1  1  1  1  1  1  1  1  1  1  2  2  2  3  3  3
TYPE ASSIGNMENTS      4  4  4  2  3  4  2  3  4  2  3  4  5  6  7  8  9 10  5  6
TYPE ASSIGNMENTS      7  8  9 10  5  6  7  8  9 10 11 12 13 17 14 15 18 19 16 20
TYPE ASSIGNMENTS     11 12 13 17 14 15 18 19 16 20  1  1  1  1  1  1  1  1  1  1
TYPE ASSIGNMENTS      1  1  1  1  1  1  1  1  1  2  2  2  3  3  3  4  4  4  2  3
TYPE ASSIGNMENTS      4  2  3  4  2  3  4  5  6  7  8  9 10  5  6  7  8  9 10  5
TYPE ASSIGNMENTS      6  7  8  9 10 11 12 13 17 14 15 18 19 16 20 11 12 13 17 14
TYPE ASSIGNMENTS     15 18 19 16 20
EXPONENTS  0.1533000D+05 0.2299000D+04 0.5224000D+03 0.1473000D+03 0.4755000D+02
EXPONENTS  0.1676000D+02 0.6207000D+01 0.6882000D+00 0.1533000D+05 0.2299000D+04
EXPONENTS  0.5224000D+03 0.1473000D+03 0.4755000D+02 0.1676000D+02 0.6207000D+01
EXPONENTS  0.6882000D+00 0.1752000D+01 0.2384000D+00 0.7376000D-01 0.3446000D+02
EXPONENTS  0.7749000D+01 0.2280000D+01 0.3446000D+02 0.7749000D+01 0.2280000D+01
EXPONENTS  0.3446000D+02 0.7749000D+01 0.2280000D+01 0.7156000D+00 0.7156000D+00
EXPONENTS  0.7156000D+00 0.2140000D+00 0.2140000D+00 0.2140000D+00 0.5974000D-01
EXPONENTS  0.5974000D-01 0.5974000D-01 0.2314000D+01 0.2314000D+01 0.2314000D+01
EXPONENTS  0.2314000D+01 0.2314000D+01 0.2314000D+01 0.6450000D+00 0.6450000D+00
EXPONENTS  0.6450000D+00 0.6450000D+00 0.6450000D+00 0.6450000D+00 0.2140000D+00
EXPONENTS  0.2140000D+00 0.2140000D+00 0.2140000D+00 0.2140000D+00 0.2140000D+00
EXPONENTS  0.1428000D+01 0.1428000D+01 0.1428000D+01 0.1428000D+01 0.1428000D+01
EXPONENTS  0.1428000D+01 0.1428000D+01 0.1428000D+01 0.1428000D+01 0.1428000D+01
EXPONENTS  0.5000000D+00 0.5000000D+00 0.5000000D+00 0.5000000D+00 0.5000000D+00
EXPONENTS  0.5000000D+00 0.5000000D+00 0.5000000D+00 0.5000000D+00 0.5000000D+00
EXPONENTS  0.1533000D+05 0.2299000D+04 0.5224000D+03 0.1473000D+03 0.4755000D+02
EXPONENTS  0.1676000D+02 0.6207000D+01 0.6882000D+00 0.1533000D+05 0.2299000D+04
EXPONENTS  0.5224000D+03 0.1473000D+03 0.4755000D+02 0.1676000D+02 0.6207000D+01
EXPONENTS  0.6882000D+00 0.1752000D+01 0.2384000D+00 0.7376000D-01 0.3446000D+02
EXPONENTS  0.7749000D+01 0.2280000D+01 0.3446000D+02 0.7749000D+01 0.2280000D+01
EXPONENTS  0.3446000D+02 0.7749000D+01 0.2280000D+01 0.7156000D+00 0.7156000D+00
EXPONENTS  0.7156000D+00 0.2140000D+00 0.2140000D+00 0.2140000D+00 0.5974000D-01
EXPONENTS  0.5974000D-01 0.5974000D-01 0.2314000D+01 0.2314000D+01 0.2314000D+01
EXPONENTS  0.2314000D+01 0.2314000D+01 0.2314000D+01 0.6450000D+00 0.6450000D+00
EXPONENTS  0.6450000D+00 0.6450000D+00 0.6450000D+00 0.6450000D+00 0.2140000D+00
EXPONENTS  0.2140000D+00 0.2140000D+00 0.2140000D+00 0.2140000D+00 0.2140000D+00
EXPONENTS  0.1428000D+01 0.1428000D+01 0.1428000D+01 0.1428000D+01 0.1428000D+01
EXPONENTS  0.1428000D+01 0.1428000D+01 0.1428000D+01 0.1428000D+01 0.1428000D+01
EXPONENTS  0.5000000D+00 0.5000000D+00 0.5000000D+00 0.5000000D+00 0.5000000D+00
EXPONENTS  0.5000000D+00 0.5000000D+00 0.5000000D+00 0.5000000D+00 0.5000000D+00
EXPONENTS  0.1533000D+05 0.2299000D+04 0.5224000D+03 0.1473000D+03 0.4755000D+02
EXPONENTS  0.1676000D+02 0.6207000D+01 0.6882000D+00 0.1533000D+05 0.2299000D+04
EXPONENTS  0.5224000D+03 0.1473000D+03 0.4755000D+02 0.1676000D+02 0.6207000D+01
EXPONENTS  0.6882000D+00 0.1752000D+01 0.2384000D+00 0.7376000D-01 0.3446000D+02
EXPONENTS  0.7749000D+01 0.2280000D+01 0.3446000D+02 0.7749000D+01 0.2280000D+01
EXPONENTS  0.3446000D+02 0.7749000D+01 0.2280000D+01 0.7156000D+00 0.7156000D+00
EXPONENTS  0.7156000D+00 0.2140000D+00 0.2140000D+00 0.2140000D+00 0.5974000D-01
EXPONENTS  0.5974000D-01 0.5974000D-01 0.2314000D+01 0.2314000D+01 0.2314000D+01
EXPONENTS  0.2314000D+01 0.2314000D+01 0.2314000D+01 0.6450000D+00 0.6450000D+00
EXPONENTS  0.6450000D+00 0.6450000D+00 0.6450000D+00 0.6450000D+00 0.2140000D+00
EXPONENTS  0.2140000D+00 0.2140000D+00 0.2140000D+00 0.2140000D+00 0.2140000D+00
EXPONENTS  0.1428000D+01 0.1428000D+01 0.1428000D+01 0.1428000D+01 0.1428000D+01
EXPONENTS  0.1428000D+01 0.1428000D+01 0.1428000D+01 0.1428000D+01 0.1428000D+01
EXPONENTS  0.5000000D+00 0.5000000D+00 0.5000000D+00 0.5000000D+00 0.5000000D+00
EXPONENTS  0.5000000D+00 0.5000000D+00 0.5000000D+00 0.5000000D+00 0.5000000D+00
MO    1     MO 0.0        OCC NO =    1.0000000  ORB. ENERGY =  -20.530100
 -0.46968965D-03 -0.87544108D-03 -0.14844580D-02 -0.22467963D-02 -0.28033458D-02
 -0.24077002D-02 -0.92436292D-03  0.41347321D-05 -0.71462678D-05 -0.13403002D-04
 -0.22849181D-04 -0.35708822D-04 -0.47749499D-04 -0.50985332D-04 -0.31171433D-04
  0.20565018D-04  0.40465338D-03 -0.13923534D-02 -0.45179389D-03  0.13746243D-03
  0.13329232D-03  0.89918213D-04 -0.31842688D-04 -0.30876696D-04 -0.20829237D-04
  0.00000000D+00  0.00000000D+00  0.00000000D+00 -0.30464946D-03 -0.17773486D-03
 -0.00000000D+00 -0.68661475D-03 -0.25448387D-03 -0.00000000D+00 -0.38176200D-04
 -0.21952515D-04 -0.00000000D+00  0.57229983D-03  0.61803237D-03  0.57380043D-03
 -0.14641673D-03 -0.00000000D+00  0.00000000D+00  0.55074902D-04  0.28624737D-03
  0.49526152D-03 -0.49021014D-03 -0.00000000D+00 -0.00000000D+00 -0.80395006D-04
  0.37922842D-04  0.48375755D-04 -0.10863946D-03 -0.00000000D+00 -0.00000000D+00
 -0.25980862D-03  0.10694914D-03  0.00000000D+00 -0.34826165D-03 -0.14065485D-02
  0.00000000D+00  0.77195798D-03  0.22623065D-03  0.00000000D+00  0.00000000D+00
 -0.42358954D-04 -0.26807427D-04  0.00000000D+00 -0.76261186D-05 -0.13155401D-03
  0.00000000D+00  0.17660485D-04 -0.80966958D-06  0.00000000D+00 -0.00000000D+00
 -0.49636372D+00 -0.92515810D+00 -0.15687616D+01 -0.23743938D+01 -0.29625502D+01
 -0.25444355D+01 -0.97685826D+00  0.43695469D-02 -0.16968648D-02 -0.31825120D-02
 -0.54254853D-02 -0.84789775D-02 -0.11338009D-01 -0.12106350D-01 -0.74015848D-02
  0.48831161D-02 -0.54316511D-01  0.61964443D-02  0.10788186D-02 -0.00000000D+00
 -0.00000000D+00 -0.00000000D+00  0.14814982D-01  0.14365549D-01  0.96909145D-02
  0.00000000D+00  0.00000000D+00  0.00000000D+00  0.00000000D+00 -0.64355874D-02
 -0.00000000D+00 -0.00000000D+00 -0.15611733D-02 -0.00000000D+00  0.00000000D+00
 -0.47535225D-04  0.00000000D+00 -0.16318799D-01 -0.16241553D-01 -0.22563720D-01
 -0.00000000D+00 -0.00000000D+00  0.00000000D+00 -0.57321680D-02 -0.63057936D-02
 -0.64057964D-02 -0.00000000D+00 -0.00000000D+00 -0.00000000D+00 -0.19868626D-03
 -0.20965893D-03 -0.39993033D-03  0.00000000D+00 -0.00000000D+00 -0.00000000D+00
 -0.00000000D+00  0.93495006D-02  0.00000000D+00 -0.00000000D+00  0.91118926D-02
  0.00000000D+00 -0.00000000D+00  0.91198910D-02  0.00000000D+00 -0.00000000D+00
 -0.00000000D+00  0.85734869D-03  0.00000000D+00 -0.00000000D+00  0.62765309D-03
  0.00000000D+00 -0.00000000D+00  0.94517505D-03  0.00000000D+00  0.00000000D+00
 -0.46968965D-03 -0.87544108D-03 -0.14844580D-02 -0.22467963D-02 -0.28033458D-02
 -0.24077002D-02 -0.92436292D-03  0.41347321D-05 -0.71462678D-05 -0.13403002D-04
 -0.22849181D-04 -0.35708822D-04 -0.47749499D-04 -0.50985332D-04 -0.31171433D-04
  0.20565018D-04  0.40465338D-03 -0.13923534D-02 -0.45179389D-03 -0.13746243D-03
 -0.13329232D-03 -0.89918213D-04 -0.31842688D-04 -0.30876696D-04 -0.20829237D-04
 -0.00000000D+00 -0.00000000D+00 -0.00000000D+00  0.30464946D-03 -0.17773486D-03
  0.00000000D+00  0.68661475D-03 -0.25448387D-03  0.00000000D+00  0.38176200D-04
 -0.21952515D-04 -0.00000000D+00  0.57229983D-03  0.61803237D-03  0.57380043D-03
  0.14641673D-03  0.00000000D+00 -0.00000000D+00  0.55074902D-04  0.28624737D-03
  0.49526152D-03  0.49021014D-03  0.00000000D+00 -0.00000000D+00 -0.80395006D-04
  0.37922842D-04  0.48375755D-04  0.10863946D-03 -0.00000000D+00  0.00000000D+00
  0.25980862D-03  0.10694914D-03 -0.00000000D+00  0.34826165D-03 -0.14065485D-02
 -0.00000000D+00 -0.77195798D-03  0.22623065D-03 -0.00000000D+00  0.00000000D+00
  0.42358954D-04 -0.26807427D-04 -0.00000000D+00  0.76261186D-05 -0.13155401D-03
 -0.00000000D+00 -0.17660485D-04 -0.80966958D-06 -0.00000000D+00  0.00000000D+00
MO    2     MO 0.0        OCC NO =    1.0000000  ORB. ENERGY =  -20.347300
 -0.35111843D+00 -0.65443957D+00 -0.11097127D+01 -0.16796018D+01 -0.20956527D+01
 -0.17998862D+01 -0.69101130D+00  0.30909359D-02 -0.12307403D-02 -0.23082840D-02
 -0.39351181D-02 -0.61498236D-02 -0.82234860D-02 -0.87807658D-02 -0.53683880D-02
  0.35417364D-02 -0.37858610D-01  0.43986992D-02  0.79418979D-03 -0.91936209D-02
 -0.89147197D-02 -0.60138172D-02 -0.54343221D-02 -0.52694644D-02 -0.35547496D-02
 -0.00000000D+00 -0.00000000D+00 -0.00000000D+00  0.44911427D-02  0.26211975D-02
  0.00000000D+00  0.11855533D-02  0.64039852D-03 -0.00000000D+00  0.41790398D-04
  0.36092722D-04 -0.00000000D+00 -0.12804539D-01 -0.13323675D-01 -0.15213929D-01
  0.92577948D-03  0.00000000D+00  0.00000000D+00 -0.40274668D-02 -0.45597862D-02
 -0.47274713D-02  0.87568436D-03 -0.00000000D+00 -0.00000000D+00 -0.12375598D-03
 -0.24320534D-03 -0.31042670D-03  0.20044851D-03 -0.00000000D+00 -0.00000000D+00
 -0.59993903D-02 -0.35649930D-02 -0.00000000D+00 -0.61890190D-02 -0.31668622D-02
 -0.00000000D+00 -0.62697370D-02 -0.35612799D-02 -0.00000000D+00  0.00000000D+00
 -0.42510601D-03 -0.27880715D-03 -0.00000000D+00 -0.43929765D-03 -0.33964601D-04
 -0.00000000D+00 -0.59512790D-03 -0.30402747D-03 -0.00000000D+00 -0.00000000D+00
 -0.00000000D+00 -0.00000000D+00 -0.00000000D+00 -0.00000000D+00 -0.00000000D+00
 -0.00000000D+00 -0.00000000D+00  0.00000000D+00 -0.00000000D+00 -0.00000000D+00
 -0.00000000D+00 -0.00000000D+00 -0.00000000D+00 -0.00000000D+00 -0.00000000D+00
  0.00000000D+00 -0.00000000D+00  0.00000000D+00  0.00000000D+00 -0.70960205D-03
 -0.68807529D-03 -0.46417153D-03  0.00000000D+00  0.00000000D+00  0.00000000D+00
 -0.00000000D+00 -0.00000000D+00 -0.00000000D+00  0.13091118D-02 -0.00000000D+00
  0.00000000D+00  0.14131614D-02 -0.00000000D+00  0.00000000D+00  0.12657733D-03
 -0.00000000D+00  0.00000000D+00 -0.00000000D+00 -0.00000000D+00 -0.00000000D+00
  0.51450071D-03  0.00000000D+00  0.00000000D+00  0.00000000D+00 -0.00000000D+00
 -0.00000000D+00 -0.17601033D-02 -0.00000000D+00 -0.00000000D+00  0.00000000D+00
  0.00000000D+00 -0.00000000D+00 -0.36551054D-03 -0.00000000D+00 -0.00000000D+00
  0.20553005D-03  0.00000000D+00 -0.00000000D+00  0.49898424D-03 -0.00000000D+00
 -0.00000000D+00 -0.16478221D-02  0.00000000D+00 -0.00000000D+00 -0.00000000D+00
  0.18843189D-03  0.00000000D+00 -0.00000000D+00  0.36675956D-03 -0.00000000D+00
 -0.00000000D+00 -0.23231289D-04  0.00000000D+00 -0.00000000D+00  0.00000000D+00
  0.35111863D+00  0.65443994D+00  0.11097133D+01  0.16796028D+01  0.20956539D+01
  0.17998872D+01  0.69101169D+00 -0.30909377D-02  0.12307422D-02  0.23082876D-02
  0.39351243D-02  0.61498333D-02  0.82234989D-02  0.87807796D-02  0.53683965D-02
 -0.35417419D-02  0.37858631D-01 -0.43987017D-02 -0.79419080D-03 -0.91936209D-02
 -0.89147197D-02 -0.60138172D-02  0.54343221D-02  0.52694644D-02  0.35547496D-02
  0.00000000D+00  0.00000000D+00  0.00000000D+00  0.44911427D-02 -0.26211975D-02
 -0.00000000D+00  0.11855533D-02 -0.64039852D-03  0.00000000D+00  0.41790398D-04
 -0.36092722D-04  0.00000000D+00  0.12804539D-01  0.13323675D-01  0.15213929D-01
  0.92577948D-03  0.00000000D+00 -0.00000000D+00  0.40274668D-02  0.45597939D-02
  0.47274713D-02  0.87568436D-03 -0.00000000D+00  0.00000000D+00  0.12375598D-03
  0.24320534D-03  0.31042670D-03  0.20044851D-03 -0.00000000D+00  0.00000000D+00
 -0.59993903D-02  0.35649930D-02  0.00000000D+00 -0.61890190D-02  0.31668622D-02
  0.00000000D+00 -0.62697370D-02  0.35612799D-02  0.00000000D+00  0.00000000D+00
 -0.42510601D-03  0.27880715D-03  0.00000000D+00 -0.43929765D-03  0.33964601D-04
  0.00000000D+00 -0.59512790D-03  0.30402747D-03  0.00000000D+00 -0.00000000D+00
MO    3     MO 0.0        OCC NO =    1.0000000  ORB. ENERGY =  -20.347300
 -0.35101812D+00 -0.65425260D+00 -0.11093956D+01 -0.16791220D+01 -0.20950540D+01
 -0.17993720D+01 -0.69081388D+00  0.30900529D-02 -0.13018834D-02 -0.24417147D-02
 -0.41625882D-02 -0.65053151D-02 -0.86988458D-02 -0.92883393D-02 -0.56787085D-02
  0.37464670D-02 -0.37271752D-01  0.43405965D-02  0.35991455D-03 -0.89423575D-02
 -0.86710788D-02 -0.58494585D-02 -0.58836469D-02 -0.57051584D-02 -0.38486661D-02
  0.00000000D+00  0.00000000D+00  0.00000000D+00  0.44337084D-02  0.29336994D-02
 -0.00000000D+00  0.13379283D-02  0.95283733D-03 -0.00000000D+00  0.21623722D-04
  0.13484725D-04  0.00000000D+00 -0.12355645D-01 -0.12920156D-01 -0.14695365D-01
  0.77354569D-03  0.00000000D+00 -0.00000000D+00 -0.35242436D-02 -0.39553759D-02
 -0.42262499D-02  0.10539895D-02 -0.00000000D+00 -0.00000000D+00  0.12540836D-04
 -0.83585627D-04 -0.18702979D-03  0.27233095D-03 -0.00000000D+00 -0.00000000D+00
 -0.59155112D-02 -0.40470025D-02  0.00000000D+00 -0.56287624D-02 -0.35560699D-02
  0.00000000D+00 -0.60358015D-02 -0.40886622D-02  0.00000000D+00  0.00000000D+00
 -0.40736334D-03 -0.35247651D-03  0.00000000D+00 -0.32776393D-03 -0.65479432D-04
 -0.00000000D+00 -0.54881757D-03 -0.39605299D-03  0.00000000D+00 -0.00000000D+00
  0.72113234D-03  0.13440979D-02  0.22791447D-02  0.34495916D-02  0.43040832D-02
  0.36966334D-02  0.14192095D-02 -0.63482110D-05  0.99214986D-05  0.18608017D-04
  0.31722589D-04  0.49576232D-04  0.66292868D-04  0.70785327D-04  0.43276761D-04
 -0.28551379D-04  0.43774500D-03 -0.38740406D-02 -0.53754115D-03 -0.00000000D+00
 -0.00000000D+00 -0.00000000D+00 -0.72317194D-03 -0.70123352D-03 -0.47304799D-03
 -0.00000000D+00 -0.00000000D+00 -0.00000000D+00  0.00000000D+00  0.10548604D-02
  0.00000000D+00  0.00000000D+00  0.12715231D-02  0.00000000D+00  0.00000000D+00
  0.27675451D-04  0.00000000D+00  0.96624277D-03  0.52035053D-03  0.51277608D-03
  0.00000000D+00 -0.00000000D+00  0.00000000D+00 -0.92318464D-03  0.44782742D-04
  0.59308671D-03 -0.00000000D+00  0.00000000D+00 -0.00000000D+00 -0.41696397D-03
 -0.10793808D-03  0.86908128D-05 -0.00000000D+00  0.00000000D+00 -0.00000000D+00
  0.00000000D+00 -0.93386055D-03  0.00000000D+00  0.00000000D+00  0.19705475D-02
 -0.00000000D+00 -0.00000000D+00 -0.14902751D-02 -0.00000000D+00  0.00000000D+00
  0.00000000D+00 -0.77135572D-04 -0.00000000D+00  0.00000000D+00  0.51753803D-03
  0.00000000D+00 -0.00000000D+00 -0.10268963D-03  0.00000000D+00 -0.00000000D+00
 -0.35101792D+00 -0.65425223D+00 -0.11093950D+01 -0.16791210D+01 -0.20950528D+01
 -0.17993709D+01 -0.69081349D+00  0.30900511D-02 -0.13018834D-02 -0.24417147D-02
 -0.41625882D-02 -0.65053151D-02 -0.86988458D-02 -0.92883393D-02 -0.56787085D-02
  0.37464670D-02 -0.37271730D-01  0.43405940D-02  0.35991455D-03  0.89423575D-02
  0.86710788D-02  0.58494585D-02 -0.58835979D-02 -0.57051109D-02 -0.38486341D-02
  0.00000000D+00  0.00000000D+00  0.00000000D+00 -0.44337084D-02  0.29336994D-02
 -0.00000000D+00 -0.13379262D-02  0.95283733D-03 -0.00000000D+00 -0.21623722D-04
  0.13484725D-04  0.00000000D+00 -0.12355574D-01 -0.12920156D-01 -0.14695365D-01
 -0.77354569D-03 -0.00000000D+00 -0.00000000D+00 -0.35242436D-02 -0.39553759D-02
 -0.42262423D-02 -0.10539895D-02  0.00000000D+00 -0.00000000D+00  0.12540836D-04
 -0.83585627D-04 -0.18702979D-03 -0.27233095D-03  0.00000000D+00 -0.00000000D+00
  0.59155112D-02 -0.40470025D-02  0.00000000D+00  0.56287624D-02 -0.35560699D-02
  0.00000000D+00  0.60358015D-02 -0.40886622D-02  0.00000000D+00 -0.00000000D+00
  0.40736334D-03 -0.35247651D-03  0.00000000D+00  0.32776393D-03 -0.65479432D-04
 -0.00000000D+00  0.54881757D-03 -0.39605299D-03  0.00000000D+00  0.00000000D+00
MO    4     MO 0.0        OCC NO =    1.0000000  ORB. ENERGY =   -1.348980
 -0.26584776D-02 -0.49550603D-02 -0.84021404D-02 -0.12717031D-01 -0.15867142D-01
 -0.13627759D-01 -0.52319615D-02  0.23402885D-04 -0.38397091D-01 -0.72014695D-01
 -0.12276927D+00 -0.19186447D+00 -0.25655935D+00 -0.27394557D+00 -0.16748495D+00
  0.11049640D+00  0.55817106D-01  0.27657362D-01 -0.97542160D-03  0.17987983D+00
  0.17442293D+00  0.11766468D+00  0.10116373D+00  0.98094788D-01  0.66174165D-01
 -0.00000000D+00 -0.00000000D+00 -0.00000000D+00  0.41349168D-01  0.22674802D-01
  0.00000000D+00  0.18804877D-02  0.24738152D-02  0.00000000D+00 -0.12931418D-03
 -0.92503676D-04 -0.00000000D+00  0.19981760D-01 -0.26053970D-02 -0.74391833D-02
  0.41458955D-01 -0.00000000D+00 -0.00000000D+00  0.68872281D-02 -0.22744070D-02
 -0.44186530D-02  0.13450863D-01 -0.00000000D+00 -0.00000000D+00 -0.19993192D-03
  0.14587754D-03 -0.10962371D-03  0.13479109D-03  0.00000000D+00 -0.00000000D+00
  0.15581954D-01  0.23021138D-02 -0.00000000D+00  0.15119443D-01  0.27642039D-01
 -0.00000000D+00 -0.50522155D-03 -0.44380246D-03 -0.00000000D+00 -0.00000000D+00
  0.16470939D-02 -0.84717908D-04 -0.00000000D+00  0.11525681D-02  0.19878149D-02
 -0.00000000D+00  0.10166543D-03 -0.37615726D-03 -0.00000000D+00 -0.00000000D+00
 -0.16968487D-02 -0.31627076D-02 -0.53629042D-02 -0.81170053D-02 -0.10127653D-01
 -0.86983030D-02 -0.33394476D-02  0.14937554D-04 -0.88481687D-01 -0.16594960D+00
 -0.28290768D+00 -0.44212964D+00 -0.59121157D+00 -0.63127612D+00 -0.38594984D+00
  0.25462627D+00  0.12657334D+00  0.57824251D-01  0.39266081D-02  0.00000000D+00
  0.00000000D+00  0.00000000D+00 -0.20360254D+00 -0.19742597D+00 -0.13318240D+00
  0.00000000D+00  0.00000000D+00  0.00000000D+00  0.00000000D+00 -0.47097270D-01
 -0.00000000D+00 -0.00000000D+00 -0.15676443D-02 -0.00000000D+00 -0.00000000D+00
 -0.82654618D-04  0.00000000D+00  0.61435233D-02 -0.18161748D-01  0.10921502D-02
 -0.00000000D+00 -0.00000000D+00 -0.00000000D+00 -0.46837430D-02 -0.11992621D-01
 -0.99060479D-02 -0.00000000D+00  0.00000000D+00  0.00000000D+00 -0.32477885D-02
 -0.18376559D-02 -0.17325083D-02  0.00000000D+00 -0.00000000D+00  0.00000000D+00
  0.00000000D+00 -0.46116113D-02  0.00000000D+00  0.00000000D+00 -0.47088189D-01
  0.00000000D+00 -0.00000000D+00  0.19777387D-02  0.00000000D+00  0.00000000D+00
  0.00000000D+00  0.11631428D-02  0.00000000D+00  0.00000000D+00  0.52178014D-03
  0.00000000D+00  0.00000000D+00  0.15371888D-02  0.00000000D+00  0.00000000D+00
 -0.26584776D-02 -0.49550603D-02 -0.84021404D-02 -0.12717031D-01 -0.15867142D-01
 -0.13627759D-01 -0.52319615D-02  0.23402885D-04 -0.38397091D-01 -0.72014695D-01
 -0.12276927D+00 -0.19186447D+00 -0.25655935D+00 -0.27394557D+00 -0.16748495D+00
  0.11049640D+00  0.55817106D-01  0.27657362D-01 -0.97542160D-03 -0.17987983D+00
 -0.17442293D+00 -0.11766468D+00  0.10116373D+00  0.98094788D-01  0.66174165D-01
  0.00000000D+00  0.00000000D+00  0.00000000D+00 -0.41349168D-01  0.22674802D-01
 -0.00000000D+00 -0.18804877D-02  0.24738152D-02  0.00000000D+00  0.12931418D-03
 -0.92503676D-04 -0.00000000D+00  0.19981760D-01 -0.26053970D-02 -0.74391833D-02
 -0.41458955D-01  0.00000000D+00  0.00000000D+00  0.68872281D-02 -0.22744070D-02
 -0.44186530D-02 -0.13450863D-01 -0.00000000D+00 -0.00000000D+00 -0.19993192D-03
  0.14587754D-03 -0.10962371D-03 -0.13479109D-03 -0.00000000D+00  0.00000000D+00
 -0.15581954D-01  0.23021138D-02  0.00000000D+00 -0.15119443D-01  0.27642039D-01
  0.00000000D+00  0.50522155D-03 -0.44380246D-03  0.00000000D+00  0.00000000D+00
 -0.16470939D-02 -0.84717908D-04  0.00000000D+00 -0.11525681D-02  0.19878149D-02
  0.00000000D+00 -0.10166543D-03 -0.37615726D-03 -0.00000000D+00 -0.00000000D+00
MO    5     MO 0.0        OCC NO =    1.0000000  ORB. ENERGY =   -1.052560
  0.30871464D-02  0.57540437D-02  0.97569515D-02  0.14767601D-01  0.18425654D-01
  0.15825179D-01  0.60755941D-02 -0.27176505D-04  0.70353701D-01  0.13195011D+00
  0.22494601D+00  0.35154683D+00  0.47008509D+00  0.50194129D+00  0.30687706D+00
 -0.20245885D+00 -0.10416834D+00 -0.56021360D-01 -0.33290000D-02 -0.77653538D-01
 -0.75297811D-01 -0.50795458D-01 -0.86625338D-01 -0.83997439D-01 -0.56664176D-01
  0.00000000D+00  0.00000000D+00  0.00000000D+00 -0.17261512D-01 -0.19845624D-01
 -0.00000000D+00 -0.19361604D-03 -0.40435052D-03 -0.00000000D+00 -0.51599040D-04
 -0.10486773D-03  0.00000000D+00 -0.46790817D-02  0.32605870D-03 -0.70876859D-02
 -0.22497927D-01  0.00000000D+00  0.00000000D+00  0.38904596D-02  0.25818729D-02
  0.32549817D-02 -0.68394379D-02 -0.00000000D+00 -0.00000000D+00  0.11066811D-02
  0.75023037D-03  0.67453430D-03  0.60632478D-03  0.00000000D+00  0.00000000D+00
 -0.73554030D-02 -0.36784070D-02  0.00000000D+00 -0.14285919D-01 -0.21484133D-01
  0.00000000D+00  0.19949830D-02  0.43741839D-03  0.00000000D+00  0.00000000D+00
  0.67356215D-03 -0.58448362D-03  0.00000000D+00 -0.42615609D-03 -0.38210176D-03
  0.00000000D+00  0.86063724D-03  0.25300444D-04  0.00000000D+00 -0.00000000D+00
 -0.00000000D+00 -0.00000000D+00 -0.00000000D+00 -0.00000000D+00 -0.00000000D+00
 -0.00000000D+00 -0.00000000D+00  0.00000000D+00  0.00000000D+00  0.00000000D+00
  0.00000000D+00  0.00000000D+00  0.00000000D+00  0.00000000D+00  0.00000000D+00
 -0.00000000D+00 -0.00000000D+00 -0.00000000D+00 -0.00000000D+00  0.61386446D+00
  0.59524204D+00  0.40154676D+00 -0.00000000D+00 -0.00000000D+00 -0.00000000D+00
 -0.00000000D+00 -0.00000000D+00 -0.00000000D+00  0.13441125D+00 -0.00000000D+00
  0.00000000D+00  0.94289698D-02  0.00000000D+00 -0.00000000D+00 -0.41090292D-03
  0.00000000D+00  0.00000000D+00  0.00000000D+00  0.00000000D+00 -0.00000000D+00
 -0.10475826D+00 -0.00000000D+00  0.00000000D+00  0.00000000D+00  0.00000000D+00
  0.00000000D+00 -0.34373390D-01 -0.00000000D+00  0.00000000D+00 -0.00000000D+00
 -0.00000000D+00  0.00000000D+00 -0.10152646D-02 -0.00000000D+00  0.00000000D+00
  0.34986971D-01 -0.00000000D+00 -0.00000000D+00  0.31824995D-01 -0.00000000D+00
 -0.00000000D+00  0.13426272D-01 -0.00000000D+00  0.00000000D+00  0.00000000D+00
  0.22262173D-02 -0.00000000D+00  0.00000000D+00  0.52523058D-02 -0.00000000D+00
  0.00000000D+00  0.15419984D-02 -0.00000000D+00 -0.00000000D+00  0.00000000D+00
 -0.30871464D-02 -0.57540437D-02 -0.97569515D-02 -0.14767601D-01 -0.18425654D-01
 -0.15825179D-01 -0.60755941D-02  0.27176505D-04 -0.70353701D-01 -0.13195011D+00
 -0.22494601D+00 -0.35154683D+00 -0.47008509D+00 -0.50194129D+00 -0.30687706D+00
  0.20245885D+00  0.10416834D+00  0.56021360D-01  0.33290000D-02 -0.77653538D-01
 -0.75297811D-01 -0.50795458D-01  0.86625338D-01  0.83997439D-01  0.56664176D-01
 -0.00000000D+00 -0.00000000D+00 -0.00000000D+00 -0.17261512D-01  0.19845624D-01
  0.00000000D+00 -0.19361604D-03  0.40435052D-03  0.00000000D+00 -0.51599040D-04
  0.10486773D-03 -0.00000000D+00  0.46790817D-02 -0.32605870D-03  0.70876859D-02
 -0.22497927D-01  0.00000000D+00 -0.00000000D+00 -0.38904596D-02 -0.25818729D-02
 -0.32549817D-02 -0.68394379D-02  0.00000000D+00 -0.00000000D+00 -0.11066811D-02
 -0.75023037D-03 -0.67453430D-03  0.60632478D-03 -0.00000000D+00  0.00000000D+00
 -0.73554030D-02  0.36784070D-02 -0.00000000D+00 -0.14285919D-01  0.21484133D-01
 -0.00000000D+00  0.19949830D-02 -0.43741839D-03 -0.00000000D+00 -0.00000000D+00
  0.67356215D-03  0.58448362D-03 -0.00000000D+00 -0.42615609D-03  0.38210176D-03
 -0.00000000D+00  0.86063724D-03 -0.25300444D-04 -0.00000000D+00 -0.00000000D+00
MO    6     MO 0.0        OCC NO =    1.0000000  ORB. ENERGY =   -0.827746
  0.13223841D-02  0.24647539D-02  0.41794059D-02  0.63257255D-02  0.78926585D-02
  0.67787410D-02  0.26024905D-02 -0.11641100D-04  0.63547693D-01  0.11918527D+00
  0.20318476D+00  0.31753823D+00  0.42460912D+00  0.45338355D+00  0.27718981D+00
 -0.18287300D+00 -0.98074894D-01 -0.59224636D-01 -0.60951972D-02  0.15631012D+00
  0.15156824D+00  0.10224704D+00  0.15803242D+00  0.15323829D+00  0.10337364D+00
  0.00000000D+00  0.00000000D+00  0.00000000D+00  0.30354675D-01  0.31388820D-01
 -0.00000000D+00  0.46378182D-02  0.35179916D-02 -0.00000000D+00 -0.26118799D-03
 -0.16980078D-03  0.00000000D+00  0.93988225D-02  0.20248081D-02 -0.26604904D-01
  0.37140590D-01  0.00000000D+00  0.00000000D+00  0.65463413D-02  0.35650913D-02
 -0.32802193D-02  0.11035955D-01 -0.00000000D+00 -0.00000000D+00  0.13648688D-02
  0.77053664D-03  0.39761411D-03  0.80696716D-03 -0.00000000D+00 -0.00000000D+00
  0.62481070D-02  0.59922035D-02  0.00000000D+00  0.12656882D-01  0.14750194D-01
  0.00000000D+00  0.61198216D-02  0.60481293D-02  0.00000000D+00  0.00000000D+00
  0.13981890D-02  0.77063153D-03  0.00000000D+00  0.15270230D-02  0.21595618D-02
  0.00000000D+00  0.51739962D-03  0.67313991D-03  0.00000000D+00 -0.00000000D+00
  0.12250086D-02  0.22832585D-02  0.38716499D-02  0.58599224D-02  0.73114722D-02
  0.62795795D-02  0.24108527D-02 -0.10783892D-04 -0.67327760D-01 -0.12627488D+00
 -0.21527099D+00 -0.33642666D+00 -0.44986655D+00 -0.48035259D+00 -0.29367815D+00
  0.19375101D+00  0.10269592D+00  0.63424377D-01  0.10115126D-01  0.00000000D+00
  0.00000000D+00  0.00000000D+00  0.41839636D+00  0.40570373D+00  0.27368534D+00
  0.00000000D+00  0.00000000D+00  0.00000000D+00  0.00000000D+00  0.87705618D-01
  0.00000000D+00 -0.00000000D+00  0.93561268D-02  0.00000000D+00  0.00000000D+00
 -0.32969356D-03  0.00000000D+00 -0.26577178D-01 -0.19965468D-01  0.44258521D-01
 -0.00000000D+00  0.00000000D+00 -0.00000000D+00 -0.14987556D-01 -0.12442748D-01
  0.34392626D-02 -0.00000000D+00 -0.00000000D+00  0.00000000D+00 -0.29663599D-02
 -0.20287673D-02 -0.15699917D-02  0.00000000D+00 -0.00000000D+00 -0.00000000D+00
  0.00000000D+00  0.13443070D-01 -0.00000000D+00  0.00000000D+00  0.22434332D-01
 -0.00000000D+00  0.00000000D+00  0.18407455D-01 -0.00000000D+00  0.00000000D+00
  0.00000000D+00  0.30235510D-02 -0.00000000D+00  0.00000000D+00  0.41119519D-02
  0.00000000D+00  0.00000000D+00  0.29606641D-02  0.00000000D+00 -0.00000000D+00
  0.13223841D-02  0.24647539D-02  0.41794059D-02  0.63257255D-02  0.78926585D-02
  0.67787410D-02  0.26024905D-02 -0.11641100D-04  0.63547693D-01  0.11918527D+00
  0.20318476D+00  0.31753823D+00  0.42460912D+00  0.45338355D+00  0.27718981D+00
 -0.18287300D+00 -0.98074894D-01 -0.59224636D-01 -0.60951972D-02 -0.15631012D+00
 -0.15156824D+00 -0.10224704D+00  0.15803242D+00  0.15323829D+00  0.10337364D+00
 -0.00000000D+00 -0.00000000D+00 -0.00000000D+00 -0.30354675D-01  0.31388820D-01
 -0.00000000D+00 -0.46378182D-02  0.35179916D-02  0.00000000D+00  0.26118799D-03
 -0.16980078D-03 -0.00000000D+00  0.93988225D-02  0.20248081D-02 -0.26604904D-01
 -0.37140590D-01 -0.00000000D+00  0.00000000D+00  0.65463413D-02  0.35650913D-02
 -0.32802193D-02 -0.11035955D-01 -0.00000000D+00 -0.00000000D+00  0.13648688D-02
  0.77053664D-03  0.39761411D-03 -0.80696716D-03  0.00000000D+00  0.00000000D+00
 -0.62481070D-02  0.59922035D-02  0.00000000D+00 -0.12656882D-01  0.14750194D-01
 -0.00000000D+00 -0.61198216D-02  0.60481293D-02  0.00000000D+00  0.00000000D+00
 -0.13981890D-02  0.77063153D-03 -0.00000000D+00 -0.15270230D-02  0.21595618D-02
 -0.00000000D+00 -0.51739962D-03  0.67313991D-03 -0.00000000D+00 -0.00000000D+00
MO    7     MO 0.0        OCC NO =    1.0000000  ORB. ENERGY =   -0.543446
 -0.00000000D+00 -0.00000000D+00 -0.00000000D+00 -0.00000000D+00 -0.00000000D+00
 -0.00000000D+00 -0.00000000D+00  0.00000000D+00  0.00000000D+00  0.00000000D+00
  0.00000000D+00  0.00000000D+00  0.00000000D+00  0.00000000D+00  0.00000000D+00
 -0.00000000D+00  0.00000000D+00 -0.00000000D+00 -0.00000000D+00  0.00000000D+00
  0.00000000D+00  0.00000000D+00 -0.00000000D+00 -0.00000000D+00 -0.00000000D+00
 -0.54024775D+00 -0.52385858D+00 -0.35339191D+00  0.00000000D+00  0.00000000D+00
 -0.11850498D+00 -0.00000000D+00 -0.00000000D+00 -0.12082922D-01 -0.00000000D+00
 -0.00000000D+00 -0.22425834D-03  0.00000000D+00  0.00000000D+00  0.00000000D+00
 -0.00000000D+00 -0.45671128D-01 -0.27926856D-01  0.00000000D+00  0.00000000D+00
  0.00000000D+00  0.00000000D+00 -0.15525915D-01 -0.95555046D-02 -0.00000000D+00
 -0.00000000D+00 -0.00000000D+00 -0.00000000D+00  0.55995093D-03  0.35473240D-03
  0.00000000D+00  0.00000000D+00 -0.13787578D-01  0.00000000D+00  0.00000000D+00
 -0.35683757D-01  0.00000000D+00  0.00000000D+00 -0.19376585D-01 -0.31667090D-01
  0.00000000D+00  0.00000000D+00 -0.24891851D-02  0.00000000D+00  0.00000000D+00
 -0.37772401D-02  0.00000000D+00  0.00000000D+00 -0.28338366D-02 -0.19688700D-02
 -0.00000000D+00 -0.00000000D+00 -0.00000000D+00 -0.00000000D+00 -0.00000000D+00
 -0.00000000D+00 -0.00000000D+00  0.00000000D+00  0.00000000D+00  0.00000000D+00
  0.00000000D+00  0.00000000D+00  0.00000000D+00  0.00000000D+00  0.00000000D+00
 -0.00000000D+00 -0.00000000D+00  0.00000000D+00  0.00000000D+00 -0.00000000D+00
 -0.00000000D+00 -0.00000000D+00  0.00000000D+00  0.00000000D+00  0.00000000D+00
 -0.17362076D+01 -0.16835374D+01 -0.11357044D+01  0.00000000D+00  0.00000000D+00