[Molden Format]
[Title]
 Molden2AIM, Version 3.1.0 (02/25/2015)           Time: Mon Apr 21 17:42:24 2025

[Atoms] Angs
O       1       8    -1.15900000    -0.72900000     0.00000000
O       2       8     0.00000000     0.00000000     0.00000000
O       3       8     1.15900000    -0.72900000     0.00000000
[GTO]
    1 0
 S   8 1.0
    0.1533000000D+05      0.5201983071D-03
    0.2299000000D+04      0.4023344781D-02
    0.5224000000D+03      0.2072908333D-01
    0.1473000000D+03      0.8108232708D-01
    0.4755000000D+02      0.2362263521D+00
    0.1676000000D+02      0.4435182094D+00
    0.6207000000D+01      0.3586705887D+00
    0.6882000000D+00     -0.8349797237D-02
 S   8 1.0
    0.1533000000D+05     -0.1972360117D-03
    0.2299000000D+04     -0.1535010700D-02
    0.5224000000D+03     -0.7951183914D-02
    0.1473000000D+03     -0.3211345289D-01
    0.4755000000D+02     -0.1002696430D+00
    0.1676000000D+02     -0.2340471118D+00
    0.6207000000D+01     -0.3014109278D+00
    0.6882000000D+00      0.1034919650D+01
 S   1 1.0
    0.1752000000D+01      0.1000000000D+01
 S   1 1.0
    0.2384000000D+00      0.1000000000D+01
 S   1 1.0
    0.7376000000D-01      0.1000000000D+01
 P   3 1.0
    0.3446000000D+02      0.4116348957D-01
    0.7749000000D+01      0.2577628359D+00
    0.2280000000D+01      0.8024192744D+00
 P   1 1.0
    0.7156000000D+00      0.1000000000D+01
 P   1 1.0
    0.2140000000D+00      0.1000000000D+01
 P   1 1.0
    0.5974000000D-01      0.1000000000D+01
 D   1 1.0
    0.2314000000D+01      0.1000000000D+01
 D   1 1.0
    0.6450000000D+00      0.1000000000D+01
 D   1 1.0
    0.2140000000D+00      0.1000000000D+01
 F   1 1.0
    0.1428000000D+01      0.1000000000D+01
 F   1 1.0
    0.5000000000D+00      0.1000000000D+01

    2 0
 S   8 1.0
    0.1533000000D+05      0.5201983071D-03
    0.2299000000D+04      0.4023344781D-02
    0.5224000000D+03      0.2072908333D-01
    0.1473000000D+03      0.8108232708D-01
    0.4755000000D+02      0.2362263521D+00
    0.1676000000D+02      0.4435182094D+00
    0.6207000000D+01      0.3586705887D+00
    0.6882000000D+00     -0.8349797237D-02
 S   8 1.0
    0.1533000000D+05     -0.1972360117D-03
    0.2299000000D+04     -0.1535010700D-02
    0.5224000000D+03     -0.7951183914D-02
    0.1473000000D+03     -0.3211345289D-01
    0.4755000000D+02     -0.1002696430D+00
    0.1676000000D+02     -0.2340471118D+00
    0.6207000000D+01     -0.3014109278D+00
    0.6882000000D+00      0.1034919650D+01
 S   1 1.0
    0.1752000000D+01      0.1000000000D+01
 S   1 1.0
    0.2384000000D+00      0.1000000000D+01
 S   1 1.0
    0.7376000000D-01      0.1000000000D+01
 P   3 1.0
    0.3446000000D+02      0.4116348957D-01
    0.7749000000D+01      0.2577628359D+00
    0.2280000000D+01      0.8024192744D+00
 P   1 1.0
    0.7156000000D+00      0.1000000000D+01
 P   1 1.0
    0.2140000000D+00      0.1000000000D+01
 P   1 1.0
    0.5974000000D-01      0.1000000000D+01
 D   1 1.0
    0.2314000000D+01      0.1000000000D+01
 D   1 1.0
    0.6450000000D+00      0.1000000000D+01
 D   1 1.0
    0.2140000000D+00      0.1000000000D+01
 F   1 1.0
    0.1428000000D+01      0.1000000000D+01
 F   1 1.0
    0.5000000000D+00      0.1000000000D+01

    3 0
 S   8 1.0
    0.1533000000D+05      0.5201983071D-03
    0.2299000000D+04      0.4023344781D-02
    0.5224000000D+03      0.2072908333D-01
    0.1473000000D+03      0.8108232708D-01
    0.4755000000D+02      0.2362263521D+00
    0.1676000000D+02      0.4435182094D+00
    0.6207000000D+01      0.3586705887D+00
    0.6882000000D+00     -0.8349797237D-02
 S   8 1.0
    0.1533000000D+05     -0.1972360117D-03
    0.2299000000D+04     -0.1535010700D-02
    0.5224000000D+03     -0.7951183914D-02
    0.1473000000D+03     -0.3211345289D-01
    0.4755000000D+02     -0.1002696430D+00
    0.1676000000D+02     -0.2340471118D+00
    0.6207000000D+01     -0.3014109278D+00
    0.6882000000D+00      0.1034919650D+01
 S   1 1.0
    0.1752000000D+01      0.1000000000D+01
 S   1 1.0
    0.2384000000D+00      0.1000000000D+01
 S   1 1.0
    0.7376000000D-01      0.1000000000D+01
 P   3 1.0
    0.3446000000D+02      0.4116348957D-01
    0.7749000000D+01      0.2577628359D+00
    0.2280000000D+01      0.8024192744D+00
 P   1 1.0
    0.7156000000D+00      0.1000000000D+01
 P   1 1.0
    0.2140000000D+00      0.1000000000D+01
 P   1 1.0
    0.5974000000D-01      0.1000000000D+01
 D   1 1.0
    0.2314000000D+01      0.1000000000D+01
 D   1 1.0
    0.6450000000D+00      0.1000000000D+01
 D   1 1.0
    0.2140000000D+00      0.1000000000D+01
 F   1 1.0
    0.1428000000D+01      0.1000000000D+01
 F   1 1.0
    0.5000000000D+00      0.1000000000D+01


[MO]
 Ene=        -20.49010000
 Spin= Alpha
 Occup=        1.00000000
    1       -0.0015500800
    2        0.0000184800
    3        0.0002996000
    4       -0.0067251700
    5       -0.0041323000
    6        0.0000532500
    7        0.0000155900
    8        0.0000000000
    9       -0.0006146200
   10       -0.0003915200
   11       -0.0000000000
   12       -0.0037762300
   13       -0.0015734300
   14       -0.0000000000
   15       -0.0008648400
   16       -0.0005255000
   17       -0.0000000000
   18        0.0000846200
   19        0.0000779600
   20        0.0000575600
   21       -0.0000014800
   22       -0.0000000000
   23        0.0000000000
   24       -0.0002361500
   25        0.0002646000
   26        0.0006237500
   27       -0.0005876600
   28       -0.0000000000
   29       -0.0000000000
   30       -0.0009727200
   31        0.0002261200
   32        0.0003985900
   33       -0.0007285900
   34       -0.0000000000
   35       -0.0000000000
   36       -0.0000791000
   37        0.0000582500
   38        0.0000000000
   39       -0.0000547900
   40       -0.0002119700
   41        0.0000000000
   42        0.0001173800
   43        0.0000447000
   44        0.0000000000
   45        0.0000000000
   46       -0.0003465100
   47       -0.0001310900
   48        0.0000000000
   49       -0.0001041500
   50       -0.0003070400
   51        0.0000000000
   52       -0.0000038900
   53       -0.0000147800
   54        0.0000000000
   55       -0.0000000000
   56       -0.9728197700
   57        0.0097539400
   58       -0.0472198400
   59        0.0274155600
   60        0.0098403700
   61       -0.0000000000
   62        0.0031910200
   63        0.0000000000
   64        0.0000000000
   65       -0.0079171000
   66       -0.0000000000
   67       -0.0000000000
   68       -0.0083623100
   69       -0.0000000000
   70       -0.0000000000
   71       -0.0009343800
   72        0.0000000000
   73       -0.0033770200
   74       -0.0033571500
   75       -0.0022832500
   76        0.0000000000
   77        0.0000000000
   78       -0.0000000000
   79       -0.0069619400
   80       -0.0080571000
   81       -0.0086074900
   82       -0.0000000000
   83       -0.0000000000
   84        0.0000000000
   85       -0.0011441400
   86       -0.0016019500
   87       -0.0033434000
   88        0.0000000000
   89       -0.0000000000
   90       -0.0000000000
   91       -0.0000000000
   92        0.0032072800
   93        0.0000000000
   94       -0.0000000000
   95        0.0013603300
   96       -0.0000000000
   97       -0.0000000000
   98        0.0014411900
   99        0.0000000000
  100       -0.0000000000
  101       -0.0000000000
  102        0.0028606300
  103        0.0000000000
  104        0.0000000000
  105        0.0006809200
  106        0.0000000000
  107       -0.0000000000
  108        0.0014716600
  109       -0.0000000000
  110        0.0000000000
  111       -0.0015500800
  112        0.0000184800
  113        0.0002996000
  114       -0.0067251700
  115       -0.0041323000
  116       -0.0000532500
  117        0.0000155900
  118       -0.0000000000
  119        0.0006146200
  120       -0.0003915200
  121        0.0000000000
  122        0.0037762300
  123       -0.0015734300
  124        0.0000000000
  125        0.0008648400
  126       -0.0005255000
  127       -0.0000000000
  128        0.0000846200
  129        0.0000779600
  130        0.0000575600
  131        0.0000014800
  132        0.0000000000
  133       -0.0000000000
  134       -0.0002361500
  135        0.0002646000
  136        0.0006237500
  137        0.0005876600
  138        0.0000000000
  139       -0.0000000000
  140       -0.0009727200
  141        0.0002261200
  142        0.0003985900
  143        0.0007285900
  144       -0.0000000000
  145        0.0000000000
  146        0.0000791000
  147        0.0000582500
  148       -0.0000000000
  149        0.0000547900
  150       -0.0002119700
  151       -0.0000000000
  152       -0.0001173800
  153        0.0000447000
  154       -0.0000000000
  155        0.0000000000
  156        0.0003465100
  157       -0.0001310900
  158       -0.0000000000
  159        0.0001041500
  160       -0.0003070400
  161       -0.0000000000
  162        0.0000038900
  163       -0.0000147800
  164       -0.0000000000
  165       -0.0000000000
 Ene=        -20.33570000
 Spin= Alpha
 Occup=        1.00000000
    1       -0.6876184000
    2        0.0065198400
    3       -0.0343672300
    4        0.0182397500
    5        0.0076871400
    6       -0.0018971600
    7       -0.0011229200
    8       -0.0000000000
    9        0.0049127900
   10        0.0028818800
   11        0.0000000000
   12        0.0056272000
   13        0.0030360200
   14       -0.0000000000
   15        0.0009486900
   16        0.0008470300
   17       -0.0000000000
   18       -0.0021179400
   19       -0.0021182500
   20       -0.0017822900
   21       -0.0000254800
   22       -0.0000000000
   23        0.0000000000
   24       -0.0051888200
   25       -0.0059278800
   26       -0.0062619900
   27        0.0007581900
   28       -0.0000000000
   29        0.0000000000
   30       -0.0011351900
   31       -0.0021979100
   32       -0.0027757600
   33        0.0010657500
   34       -0.0000000000
   35       -0.0000000000
   36       -0.0018391100
   37       -0.0010964900
   38       -0.0000000000
   39       -0.0008481500
   40       -0.0004301400
   41       -0.0000000000
   42       -0.0008819400
   43       -0.0005032300
   44       -0.0000000000
   45        0.0000000000
   46       -0.0012770100
   47       -0.0008353700
   48       -0.0000000000
   49       -0.0005678600
   50        0.0000218700
   51       -0.0000000000
   52       -0.0008501100
   53       -0.0004331900
   54       -0.0000000000
   55       -0.0000000000
   56       -0.0000000000
   57        0.0000000000
   58       -0.0000000000
   59        0.0000000000
   60        0.0000000000
   61       -0.0001552300
   62        0.0000000000
   63       -0.0000000000
   64        0.0016079900
   65       -0.0000000000
   66        0.0000000000
   67        0.0066503500
   68       -0.0000000000
   69        0.0000000000
   70        0.0029678800
   71       -0.0000000000
   72        0.0000000000
   73       -0.0000000000
   74       -0.0000000000
   75       -0.0000000000
   76        0.0000484200
   77        0.0000000000
   78        0.0000000000
   79        0.0000000000
   80       -0.0000000000
   81       -0.0000000000
   82       -0.0014859200
   83       -0.0000000000
   84       -0.0000000000
   85        0.0000000000
   86        0.0000000000
   87       -0.0000000000
   88       -0.0019167600
   89       -0.0000000000
   90       -0.0000000000
   91        0.0000805700
   92        0.0000000000
   93       -0.0000000000
   94        0.0000840800
   95       -0.0000000000
   96       -0.0000000000
   97       -0.0002183100
   98        0.0000000000
   99       -0.0000000000
  100       -0.0000000000
  101        0.0008700000
  102        0.0000000000
  103       -0.0000000000
  104        0.0006053700
  105       -0.0000000000
  106       -0.0000000000
  107        0.0000313900
  108        0.0000000000
  109       -0.0000000000
  110        0.0000000000
  111        0.6876185700
  112       -0.0065198400
  113        0.0343672400
  114       -0.0182397500
  115       -0.0076871400
  116       -0.0018971600
  117        0.0011229200
  118        0.0000000000
  119        0.0049127900
  120       -0.0028818900
  121       -0.0000000000
  122        0.0056272000
  123       -0.0030360200
  124        0.0000000000
  125        0.0009486900
  126       -0.0008470300
  127        0.0000000000
  128        0.0021179500
  129        0.0021182600
  130        0.0017822900
  131       -0.0000254800
  132        0.0000000000
  133       -0.0000000000
  134        0.0051888300
  135        0.0059278800
  136        0.0062619900
  137        0.0007581900
  138       -0.0000000000
  139        0.0000000000
  140        0.0011351900
  141        0.0021979100
  142        0.0027757600
  143        0.0010657500
  144       -0.0000000000
  145        0.0000000000
  146       -0.0018391100
  147        0.0010964900
  148        0.0000000000
  149       -0.0008481500
  150        0.0004301400
  151        0.0000000000
  152       -0.0008819400
  153        0.0005032300
  154        0.0000000000
  155        0.0000000000
  156       -0.0012770100
  157        0.0008353700
  158        0.0000000000
  159       -0.0005678600
  160       -0.0000218700
  161        0.0000000000
  162       -0.0008501100
  163        0.0004331900
  164        0.0000000000
  165       -0.0000000000
 Ene=        -20.33560000
 Spin= Alpha
 Occup=        1.00000000
    1       -0.6874345900
    2        0.0068617300
    3       -0.0338264100
    4        0.0180709000
    5        0.0036312500
    6       -0.0018558400
    7       -0.0012177400
    8        0.0000000000
    9        0.0048974900
   10        0.0032093400
   11       -0.0000000000
   12        0.0064636600
   13        0.0045977800
   14       -0.0000000000
   15        0.0005306000
   16        0.0003168600
   17        0.0000000000
   18       -0.0020572100
   19       -0.0020540600
   20       -0.0017052200
   21       -0.0000359600
   22        0.0000000000
   23       -0.0000000000
   24       -0.0045030900
   25       -0.0051607900
   26       -0.0056000400
   27        0.0008822000
   28       -0.0000000000
   29       -0.0000000000
   30        0.0001223900
   31       -0.0007805500
   32       -0.0016740100
   33        0.0014389500
   34       -0.0000000000
   35       -0.0000000000
   36       -0.0018372200
   37       -0.0012463600
   38        0.0000000000
   39       -0.0007787500
   40       -0.0004853300
   41        0.0000000000
   42       -0.0008613300
   43       -0.0005788500
   44        0.0000000000
   45        0.0000000000
   46       -0.0012135800
   47       -0.0011100100
   48        0.0000000000
   49       -0.0004326500
   50       -0.0000344200
   51        0.0000000000
   52       -0.0007881300
   53       -0.0005724500
   54        0.0000000000
   55       -0.0000000000
   56        0.0023088500
   57       -0.0000519900
   58        0.0004440300
   59       -0.0164240900
   60       -0.0055224800
   61       -0.0000000000
   62       -0.0001597300
   63       -0.0000000000
   64        0.0000000000
   65        0.0012789600
   66        0.0000000000
   67        0.0000000000
   68        0.0061371300
   69        0.0000000000
   70        0.0000000000
   71        0.0007114000
   72        0.0000000000
   73        0.0001450200
   74        0.0000799000
   75        0.0000540600
   76        0.0000000000
   77       -0.0000000000
   78        0.0000000000
   79       -0.0013748000
   80        0.0000087200
   81        0.0008018300
   82       -0.0000000000
   83       -0.0000000000
   84       -0.0000000000
   85       -0.0037225700
   86       -0.0009239900
   87        0.0001544100
   88       -0.0000000000
   89        0.0000000000
   90       -0.0000000000
   91        0.0000000000
   92       -0.0002944100
   93       -0.0000000000
   94        0.0000000000
   95        0.0002908800
   96       -0.0000000000
   97       -0.0000000000
   98       -0.0002034400
   99       -0.0000000000
  100        0.0000000000
  101        0.0000000000
  102       -0.0001409600
  103       -0.0000000000
  104        0.0000000000
  105        0.0008407700
  106        0.0000000000
  107        0.0000000000
  108       -0.0001197300
  109        0.0000000000
  110       -0.0000000000
  111       -0.6874344300
  112        0.0068617300
  113       -0.0338264000
  114        0.0180709000
  115        0.0036312500
  116        0.0018558400
  117       -0.0012177400
  118        0.0000000000
  119       -0.0048974800
  120        0.0032093400
  121       -0.0000000000
  122       -0.0064636600
  123        0.0045977800
  124       -0.0000000000
  125       -0.0005306000
  126        0.0003168600
  127        0.0000000000
  128       -0.0020572100
  129       -0.0020540600
  130       -0.0017052200
  131        0.0000359600
  132       -0.0000000000
  133       -0.0000000000
  134       -0.0045030900
  135       -0.0051607800
  136       -0.0056000400
  137       -0.0008822000
  138        0.0000000000
  139       -0.0000000000
  140        0.0001223900
  141       -0.0007805500
  142       -0.0016740100
  143       -0.0014389500
  144        0.0000000000
  145       -0.0000000000
  146        0.0018372200
  147       -0.0012463600
  148        0.0000000000
  149        0.0007787500
  150       -0.0004853300
  151        0.0000000000
  152        0.0008613300
  153       -0.0005788500
  154        0.0000000000
  155       -0.0000000000
  156        0.0012135800
  157       -0.0011100100
  158        0.0000000000
  159        0.0004326500
  160       -0.0000344200
  161       -0.0000000000
  162        0.0007881300
  163       -0.0005724500
  164        0.0000000000
  165        0.0000000000
 Ene=         -1.27052000
 Spin= Alpha
 Occup=        1.00000000
    1       -0.0064200700
    2        0.2227146700
    3        0.0573225300
    4        0.1367847400
    5        0.0018287800
    6        0.0402603800
    7        0.0224430300
    8       -0.0000000000
    9        0.0489322800
   10        0.0264120500
   11        0.0000000000
   12        0.0128057900
   13        0.0129686100
   14        0.0000000000
   15       -0.0009108300
   16       -0.0011163200
   17       -0.0000000000
   18        0.0039762100
   19        0.0004165600
   20       -0.0029157600
   21        0.0037442900
   22        0.0000000000
   23        0.0000000000
   24        0.0112864200
   25       -0.0023593700
   26       -0.0084688900
   27        0.0115293600
   28       -0.0000000000
   29       -0.0000000000
   30       -0.0015255000
   31        0.0002251300
   32       -0.0008631600
   33        0.0013924800
   34       -0.0000000000
   35       -0.0000000000
   36        0.0050599200
   37        0.0006972400
   38       -0.0000000000
   39        0.0021017300
   40        0.0040937200
   41       -0.0000000000
   42       -0.0000991800
   43        0.0000002400
   44       -0.0000000000
   45        0.0000000000
   46        0.0058392800
   47       -0.0002850700
   48       -0.0000000000
   49        0.0018165800
   50        0.0033528600
   51       -0.0000000000
   52        0.0012974800
   53        0.0003770300
   54       -0.0000000000
   55       -0.0000000000
   56       -0.0063309900
   57        0.3983366900
   58        0.0991762500
   59        0.2094915600
   60        0.0156925800
   61        0.0000000000
   62       -0.0430971400
   63        0.0000000000
   64        0.0000000000
   65       -0.0505355500
   66       -0.0000000000
   67        0.0000000000
   68       -0.0046629200
   69       -0.0000000000
   70        0.0000000000
   71        0.0012608600
   72        0.0000000000
   73        0.0052864200
   74        0.0018150400
   75       -0.0089070300
   76       -0.0000000000
   77       -0.0000000000
   78       -0.0000000000
   79        0.0067974900
   80       -0.0040102300
   81       -0.0228144200
   82       -0.0000000000
   83        0.0000000000
   84       -0.0000000000
   85       -0.0203400000
   86       -0.0110929700
   87       -0.0091018100
   88       -0.0000000000
   89       -0.0000000000
   90        0.0000000000
   91       -0.0000000000
   92       -0.0023316800
   93        0.0000000000
   94       -0.0000000000
   95       -0.0071006900
   96        0.0000000000
   97        0.0000000000
   98        0.0000940000
   99        0.0000000000
  100        0.0000000000
  101       -0.0000000000
  102        0.0015793400
  103        0.0000000000
  104        0.0000000000
  105       -0.0020970400
  106        0.0000000000
  107        0.0000000000
  108       -0.0003958700
  109        0.0000000000
  110       -0.0000000000
  111       -0.0064200700
  112        0.2227146700
  113        0.0573225300
  114        0.1367847400
  115        0.0018287800
  116       -0.0402603800
  117        0.0224430300
  118        0.0000000000
  119       -0.0489322800
  120        0.0264120500
  121       -0.0000000000
  122       -0.0128057900
  123        0.0129686100
  124        0.0000000000
  125        0.0009108300
  126       -0.0011163200
  127        0.0000000000
  128        0.0039762100
  129        0.0004165600
  130       -0.0029157600
  131       -0.0037442900
  132       -0.0000000000
  133        0.0000000000
  134        0.0112864200
  135       -0.0023593700
  136       -0.0084688900
  137       -0.0115293600
  138        0.0000000000
  139       -0.0000000000
  140       -0.0015255000
  141        0.0002251300
  142       -0.0008631600
  143       -0.0013924800
  144       -0.0000000000
  145        0.0000000000
  146       -0.0050599200
  147        0.0006972400
  148        0.0000000000
  149       -0.0021017300
  150        0.0040937200
  151        0.0000000000
  152        0.0000991800
  153        0.0000002400
  154        0.0000000000
  155        0.0000000000
  156       -0.0058392800
  157       -0.0002850700
  158       -0.0000000000
  159       -0.0018165800
  160        0.0033528600
  161       -0.0000000000
  162       -0.0012974800
  163        0.0003770300
  164       -0.0000000000
  165        0.0000000000
 Ene=         -1.02063000
 Spin= Alpha
 Occup=        1.00000000
    1       -0.0067915400
    2        0.3572532300
    3        0.0939220300
    4        0.2352950500
    5        0.0303461100
    6        0.0181817800
    7        0.0199213100
    8       -0.0000000000
    9        0.0227458100
   10        0.0251962100
   11        0.0000000000
   12        0.0054516700
   13        0.0058526400
   14       -0.0000000000
   15        0.0011981800
   16        0.0021309500
   17       -0.0000000000
   18        0.0028081500
   19        0.0014324100
   20       -0.0025612500
   21        0.0026344500
   22        0.0000000000
   23       -0.0000000000
   24        0.0011034500
   25        0.0006471900
   26       -0.0093207200
   27        0.0085726300
   28        0.0000000000
   29        0.0000000000
   30       -0.0058799300
   31       -0.0038948600
   32       -0.0047021300
   33       -0.0010932200
   34       -0.0000000000
   35       -0.0000000000
   36        0.0022442300
   37        0.0009566000
   38       -0.0000000000
   39        0.0020159000
   40        0.0031274700
   41       -0.0000000000
   42       -0.0000495600
   43        0.0000267500
   44       -0.0000000000
   45        0.0000000000
   46       -0.0012673800
   47        0.0021135000
   48       -0.0000000000
   49        0.0013763600
   50        0.0017256300
   51       -0.0000000000
   52       -0.0002383300
   53        0.0007288300
   54       -0.0000000000
   55       -0.0000000000
   56        0.0000000000
   57        0.0000000000
   58        0.0000000000
   59        0.0000000000
   60       -0.0000000000
   61       -0.1215141700
   62       -0.0000000000
   63       -0.0000000000
   64       -0.1333916600
   65       -0.0000000000
   66        0.0000000000
   67       -0.0429135100
   68       -0.0000000000
   69        0.0000000000
   70        0.0067385500
   71        0.0000000000
   72       -0.0000000000
   73        0.0000000000
   74        0.0000000000
   75       -0.0000000000
   76        0.0083558600
   77       -0.0000000000
   78       -0.0000000000
   79        0.0000000000
   80        0.0000000000
   81       -0.0000000000
   82        0.0252918900
   83        0.0000000000
   84       -0.0000000000
   85        0.0000000000
   86        0.0000000000
   87        0.0000000000
   88        0.0063808900
   89       -0.0000000000
   90       -0.0000000000
   91       -0.0125766600
   92       -0.0000000000
   93        0.0000000000
   94       -0.0052007400
   95       -0.0000000000
   96        0.0000000000
   97       -0.0007032500
   98       -0.0000000000
   99        0.0000000000
  100        0.0000000000
  101       -0.0070004000
  102        0.0000000000
  103       -0.0000000000
  104       -0.0080960800
  105        0.0000000000
  106       -0.0000000000
  107       -0.0032060400
  108        0.0000000000
  109       -0.0000000000
  110       -0.0000000000
  111        0.0067915400
  112       -0.3572532300
  113       -0.0939220300
  114       -0.2352950500
  115       -0.0303461100
  116        0.0181817800
  117       -0.0199213100
  118       -0.0000000000
  119        0.0227458100
  120       -0.0251962100
  121        0.0000000000
  122        0.0054516700
  123       -0.0058526400
  124       -0.0000000000
  125        0.0011981800
  126       -0.0021309500
  127        0.0000000000
  128       -0.0028081500
  129       -0.0014324100
  130        0.0025612500
  131        0.0026344500
  132       -0.0000000000
  133       -0.0000000000
  134       -0.0011034500
  135       -0.0006471900
  136        0.0093207200
  137        0.0085726300
  138        0.0000000000
  139        0.0000000000
  140        0.0058799300
  141        0.0038948600
  142        0.0047021300
  143       -0.0010932200
  144        0.0000000000
  145       -0.0000000000
  146        0.0022442300
  147       -0.0009566000
  148       -0.0000000000
  149        0.0020159000
  150       -0.0031274700
  151        0.0000000000
  152       -0.0000495600
  153       -0.0000267500
  154        0.0000000000
  155       -0.0000000000
  156       -0.0012673800
  157       -0.0021135000
  158        0.0000000000
  159        0.0013763600
  160       -0.0017256300
  161       -0.0000000000
  162       -0.0002383300
  163       -0.0007288300
  164       -0.0000000000
  165        0.0000000000
 Ene=         -0.74656500
 Spin= Alpha
 Occup=        1.00000000
    1        0.0024057400
    2       -0.3036726500
    3       -0.0840136900
    4       -0.2453942600
    5       -0.0594410100
    6        0.0445701900
    7        0.0420372500
    8        0.0000000000
    9        0.0454730900
   10        0.0434891400
   11       -0.0000000000
   12        0.0249296900
   13        0.0197747900
   14       -0.0000000000
   15       -0.0047673700
   16       -0.0034518800
   17        0.0000000000
   18       -0.0002995700
   19       -0.0012038600
   20       -0.0006356200
   21        0.0028637400
   22        0.0000000000
   23        0.0000000000
   24        0.0035456600
   25        0.0004580100
   26        0.0004495000
   27        0.0077493300
   28        0.0000000000
   29        0.0000000000
   30        0.0065950200
   31        0.0024855800
   32        0.0036930000
   33        0.0029949200
   34       -0.0000000000
   35        0.0000000000
   36        0.0032074100
   37        0.0025750900
   38        0.0000000000
   39        0.0024215500
   40        0.0029753700
   41        0.0000000000
   42        0.0004866700
   43        0.0005898300
   44        0.0000000000
   45        0.0000000000
   46        0.0048715400
   47        0.0032968000
   48        0.0000000000
   49        0.0024956200
   50        0.0034879900
   51        0.0000000000
   52        0.0005982500
   53        0.0009391100
   54        0.0000000000
   55       -0.0000000000
   56        0.0004320700
   57        0.3612916100
   58        0.0967286700
   59        0.2943345900
   60        0.0966968500
   61        0.0000000000
   62        0.0828218600
   63        0.0000000000
   64        0.0000000000
   65        0.0885020700
   66        0.0000000000
   67       -0.0000000000
   68        0.0425398000
   69       -0.0000000000
   70       -0.0000000000
   71       -0.0056563900
   72       -0.0000000000
   73        0.0004739100
   74        0.0014481700
   75       -0.0025949300
   76       -0.0000000000
   77        0.0000000000
   78       -0.0000000000
   79       -0.0060529300
   80       -0.0052587800
   81       -0.0097198500
   82       -0.0000000000
   83        0.0000000000
   84        0.0000000000
   85       -0.0170439600
   86       -0.0088838600
   87       -0.0141332600
   88        0.0000000000
   89       -0.0000000000
   90        0.0000000000
   91        0.0000000000
   92        0.0052367000
   93       -0.0000000000
   94       -0.0000000000
   95        0.0027112200
   96        0.0000000000
   97        0.0000000000
   98        0.0013214300
   99       -0.0000000000
  100       -0.0000000000
  101        0.0000000000
  102        0.0109221700
  103       -0.0000000000
  104        0.0000000000
  105        0.0046159000
  106       -0.0000000000
  107        0.0000000000
  108        0.0035336000
  109       -0.0000000000
  110       -0.0000000000
  111        0.0024057400
  112       -0.3036726500
  113       -0.0840136900
  114       -0.2453942600
  115       -0.0594410100
  116       -0.0445701900
  117        0.0420372500
  118        0.0000000000
  119       -0.0454730900
  120        0.0434891400
  121       -0.0000000000
  122       -0.0249296900
  123        0.0197747900
  124        0.0000000000
  125        0.0047673700
  126       -0.0034518800
  127        0.0000000000
  128       -0.0002995700
  129       -0.0012038600
  130       -0.0006356200
  131       -0.0028637400
  132       -0.0000000000
  133        0.0000000000