[Molden Format]
[Title]
 Molden2AIM, Version 3.1.0 (02/25/2015)           Time: Mon Apr 21 17:42:24 2025

[Atoms] Angs
O       1       8    -1.15900000    -0.72900000     0.00000000
O       2       8     0.00000000     0.00000000     0.00000000
O       3       8     1.15900000    -0.72900000     0.00000000
[GTO]
    1 0
 S   8 1.0
    0.1533000000D+05      0.5201983071D-03
    0.2299000000D+04      0.4023344781D-02
    0.5224000000D+03      0.2072908333D-01
    0.1473000000D+03      0.8108232708D-01
    0.4755000000D+02      0.2362263521D+00
    0.1676000000D+02      0.4435182094D+00
    0.6207000000D+01      0.3586705887D+00
    0.6882000000D+00     -0.8349797237D-02
 S   8 1.0
    0.1533000000D+05     -0.1972360117D-03
    0.2299000000D+04     -0.1535010700D-02
    0.5224000000D+03     -0.7951183914D-02
    0.1473000000D+03     -0.3211345289D-01
    0.4755000000D+02     -0.1002696430D+00
    0.1676000000D+02     -0.2340471118D+00
    0.6207000000D+01     -0.3014109278D+00
    0.6882000000D+00      0.1034919650D+01
 S   1 1.0
    0.1752000000D+01      0.1000000000D+01
 S   1 1.0
    0.2384000000D+00      0.1000000000D+01
 S   1 1.0
    0.7376000000D-01      0.1000000000D+01
 P   3 1.0
    0.3446000000D+02      0.4116348957D-01
    0.7749000000D+01      0.2577628359D+00
    0.2280000000D+01      0.8024192744D+00
 P   1 1.0
    0.7156000000D+00      0.1000000000D+01
 P   1 1.0
    0.2140000000D+00      0.1000000000D+01
 P   1 1.0
    0.5974000000D-01      0.1000000000D+01
 D   1 1.0
    0.2314000000D+01      0.1000000000D+01
 D   1 1.0
    0.6450000000D+00      0.1000000000D+01
 D   1 1.0
    0.2140000000D+00      0.1000000000D+01
 F   1 1.0
    0.1428000000D+01      0.1000000000D+01
 F   1 1.0
    0.5000000000D+00      0.1000000000D+01

    2 0
 S   8 1.0
    0.1533000000D+05      0.5201983071D-03
    0.2299000000D+04      0.4023344781D-02
    0.5224000000D+03      0.2072908333D-01
    0.1473000000D+03      0.8108232708D-01
    0.4755000000D+02      0.2362263521D+00
    0.1676000000D+02      0.4435182094D+00
    0.6207000000D+01      0.3586705887D+00
    0.6882000000D+00     -0.8349797237D-02
 S   8 1.0
    0.1533000000D+05     -0.1972360117D-03
    0.2299000000D+04     -0.1535010700D-02
    0.5224000000D+03     -0.7951183914D-02
    0.1473000000D+03     -0.3211345289D-01
    0.4755000000D+02     -0.1002696430D+00
    0.1676000000D+02     -0.2340471118D+00
    0.6207000000D+01     -0.3014109278D+00
    0.6882000000D+00      0.1034919650D+01
 S   1 1.0
    0.1752000000D+01      0.1000000000D+01
 S   1 1.0
    0.2384000000D+00      0.1000000000D+01
 S   1 1.0
    0.7376000000D-01      0.1000000000D+01
 P   3 1.0
    0.3446000000D+02      0.4116348957D-01
    0.7749000000D+01      0.2577628359D+00
    0.2280000000D+01      0.8024192744D+00
 P   1 1.0
    0.7156000000D+00      0.1000000000D+01
 P   1 1.0
    0.2140000000D+00      0.1000000000D+01
 P   1 1.0
    0.5974000000D-01      0.1000000000D+01
 D   1 1.0
    0.2314000000D+01      0.1000000000D+01
 D   1 1.0
    0.6450000000D+00      0.1000000000D+01
 D   1 1.0
    0.2140000000D+00      0.1000000000D+01
 F   1 1.0
    0.1428000000D+01      0.1000000000D+01
 F   1 1.0
    0.5000000000D+00      0.1000000000D+01

    3 0
 S   8 1.0
    0.1533000000D+05      0.5201983071D-03
    0.2299000000D+04      0.4023344781D-02
    0.5224000000D+03      0.2072908333D-01
    0.1473000000D+03      0.8108232708D-01
    0.4755000000D+02      0.2362263521D+00
    0.1676000000D+02      0.4435182094D+00
    0.6207000000D+01      0.3586705887D+00
    0.6882000000D+00     -0.8349797237D-02
 S   8 1.0
    0.1533000000D+05     -0.1972360117D-03
    0.2299000000D+04     -0.1535010700D-02
    0.5224000000D+03     -0.7951183914D-02
    0.1473000000D+03     -0.3211345289D-01
    0.4755000000D+02     -0.1002696430D+00
    0.1676000000D+02     -0.2340471118D+00
    0.6207000000D+01     -0.3014109278D+00
    0.6882000000D+00      0.1034919650D+01
 S   1 1.0
    0.1752000000D+01      0.1000000000D+01
 S   1 1.0
    0.2384000000D+00      0.1000000000D+01
 S   1 1.0
    0.7376000000D-01      0.1000000000D+01
 P   3 1.0
    0.3446000000D+02      0.4116348957D-01
    0.7749000000D+01      0.2577628359D+00
    0.2280000000D+01      0.8024192744D+00
 P   1 1.0
    0.7156000000D+00      0.1000000000D+01
 P   1 1.0
    0.2140000000D+00      0.1000000000D+01
 P   1 1.0
    0.5974000000D-01      0.1000000000D+01
 D   1 1.0
    0.2314000000D+01      0.1000000000D+01
 D   1 1.0
    0.6450000000D+00      0.1000000000D+01
 D   1 1.0
    0.2140000000D+00      0.1000000000D+01
 F   1 1.0
    0.1428000000D+01      0.1000000000D+01
 F   1 1.0
    0.5000000000D+00      0.1000000000D+01


[MO]
 Ene=        -20.53010000
 Spin= Alpha
 Occup=        1.00000000
    1       -0.0009195500
    2        0.0000369000
    3        0.0003728400
    4       -0.0057261100
    5       -0.0044788300
    6        0.0000280600
    7       -0.0000065000
    8        0.0000000000
    9       -0.0003247300
   10       -0.0001894500
   11       -0.0000000000
   12       -0.0033094500
   13       -0.0012266000
   14       -0.0000000000
   15       -0.0009068200
   16       -0.0005214500
   17       -0.0000000000
   18        0.0000800900
   19        0.0000864900
   20        0.0000803000
   21       -0.0000118300
   22       -0.0000000000
   23        0.0000000000
   24        0.0000720800
   25        0.0003746300
   26        0.0006481800
   27       -0.0003704100
   28       -0.0000000000
   29       -0.0000000000
   30       -0.0007254300
   31        0.0003421900
   32        0.0004365100
   33       -0.0005659700
   34       -0.0000000000
   35       -0.0000000000
   36       -0.0000791700
   37        0.0000325900
   38        0.0000000000
   39       -0.0000474600
   40       -0.0001916800
   41        0.0000000000
   42        0.0001052000
   43        0.0000308300
   44        0.0000000000
   45        0.0000000000
   46       -0.0001368700
   47       -0.0000866200
   48        0.0000000000
   49       -0.0000110200
   50       -0.0001901000
   51        0.0000000000
   52        0.0000255200
   53       -0.0000011700
   54        0.0000000000
   55       -0.0000000000
   56       -0.9717720100
   57        0.0087618200
   58       -0.0500462100
   59        0.0254831300
   60        0.0106948000
   61       -0.0000000000
   62        0.0030241600
   63        0.0000000000
   64        0.0000000000
   65       -0.0068597800
   66       -0.0000000000
   67       -0.0000000000
   68       -0.0075247800
   69       -0.0000000000
   70        0.0000000000
   71       -0.0011291300
   72        0.0000000000
   73       -0.0022837200
   74       -0.0022729100
   75       -0.0031576600
   76       -0.0000000000
   77       -0.0000000000
   78        0.0000000000
   79       -0.0075020500
   80       -0.0082527900
   81       -0.0083836700
   82       -0.0000000000
   83       -0.0000000000
   84       -0.0000000000
   85       -0.0017928100
   86       -0.0018918200
   87       -0.0036087000
   88        0.0000000000
   89       -0.0000000000
   90       -0.0000000000
   91       -0.0000000000
   92        0.0028490200
   93        0.0000000000
   94       -0.0000000000
   95        0.0012417400
   96        0.0000000000
   97       -0.0000000000
   98        0.0012428300
   99        0.0000000000
  100       -0.0000000000
  101       -0.0000000000
  102        0.0027702600
  103        0.0000000000
  104       -0.0000000000
  105        0.0009069800
  106        0.0000000000
  107       -0.0000000000
  108        0.0013658100
  109        0.0000000000
  110        0.0000000000
  111       -0.0009195500
  112        0.0000369000
  113        0.0003728400
  114       -0.0057261100
  115       -0.0044788300
  116       -0.0000280600
  117       -0.0000065000
  118       -0.0000000000
  119        0.0003247300
  120       -0.0001894500
  121        0.0000000000
  122        0.0033094500
  123       -0.0012266000
  124        0.0000000000
  125        0.0009068200
  126       -0.0005214500
  127       -0.0000000000
  128        0.0000800900
  129        0.0000864900
  130        0.0000803000
  131        0.0000118300
  132        0.0000000000
  133       -0.0000000000
  134        0.0000720800
  135        0.0003746300
  136        0.0006481800
  137        0.0003704100
  138        0.0000000000
  139       -0.0000000000
  140       -0.0007254300
  141        0.0003421900
  142        0.0004365100
  143        0.0005659700
  144       -0.0000000000
  145        0.0000000000
  146        0.0000791700
  147        0.0000325900
  148       -0.0000000000
  149        0.0000474600
  150       -0.0001916800
  151       -0.0000000000
  152       -0.0001052000
  153        0.0000308300
  154       -0.0000000000
  155        0.0000000000
  156        0.0001368700
  157       -0.0000866200
  158       -0.0000000000
  159        0.0000110200
  160       -0.0001901000
  161       -0.0000000000
  162       -0.0000255200
  163       -0.0000011700
  164       -0.0000000000
  165        0.0000000000
 Ene=        -20.34730000
 Spin= Alpha
 Occup=        1.00000000
    1       -0.6874133800
    2        0.0063549700
    3       -0.0348822100
    4        0.0180898300
    5        0.0078731500
    6       -0.0018766800
    7       -0.0011093000
    8       -0.0000000000
    9        0.0047871700
   10        0.0027939700
   11        0.0000000000
   12        0.0057143100
   13        0.0030866900
   14       -0.0000000000
   15        0.0009926700
   16        0.0008573300
   17       -0.0000000000
   18       -0.0017919200
   19       -0.0018645700
   20       -0.0021291000
   21        0.0000748000
   22        0.0000000000
   23        0.0000000000
   24       -0.0052710000
   25       -0.0059676800
   26       -0.0061871400
   27        0.0006616800
   28       -0.0000000000
   29       -0.0000000000
   30       -0.0011166900
   31       -0.0021945200
   32       -0.0028010800
   33        0.0010442600
   34       -0.0000000000
   35       -0.0000000000
   36       -0.0018281600
   37       -0.0010863400
   38       -0.0000000000
   39       -0.0008434200
   40       -0.0004315700
   41       -0.0000000000
   42       -0.0008544200
   43       -0.0004853200
   44       -0.0000000000
   45        0.0000000000
   46       -0.0013736000
   47       -0.0009008800
   48       -0.0000000000
   49       -0.0006348000
   50       -0.0000490800
   51       -0.0000000000
   52       -0.0008599800
   53       -0.0004393300
   54       -0.0000000000
   55       -0.0000000000
   56       -0.0000000000
   57        0.0000000000
   58       -0.0000000000
   59        0.0000000000
   60        0.0000000000
   61       -0.0001448500
   62        0.0000000000
   63       -0.0000000000
   64        0.0013954000
   65       -0.0000000000
   66        0.0000000000
   67        0.0068113700
   68       -0.0000000000
   69        0.0000000000
   70        0.0030066600
   71       -0.0000000000
   72        0.0000000000
   73       -0.0000000000
   74       -0.0000000000
   75       -0.0000000000
   76        0.0000415700
   77        0.0000000000
   78        0.0000000000
   79        0.0000000000
   80       -0.0000000000
   81       -0.0000000000
   82       -0.0013299600
   83       -0.0000000000
   84       -0.0000000000
   85        0.0000000000
   86        0.0000000000
   87       -0.0000000000
   88       -0.0019041700
   89       -0.0000000000
   90       -0.0000000000
   91        0.0000626300
   92        0.0000000000
   93       -0.0000000000
   94        0.0000680000
   95       -0.0000000000
   96       -0.0000000000
   97       -0.0002245600
   98        0.0000000000
   99       -0.0000000000
  100       -0.0000000000
  101        0.0006088600
  102        0.0000000000
  103       -0.0000000000
  104        0.0005299800
  105       -0.0000000000
  106       -0.0000000000
  107       -0.0000335700
  108        0.0000000000
  109       -0.0000000000
  110        0.0000000000
  111        0.6874137700
  112       -0.0063549800
  113        0.0348822300
  114       -0.0180898400
  115       -0.0078731600
  116       -0.0018766800
  117        0.0011093000
  118        0.0000000000
  119        0.0047871700
  120       -0.0027939700
  121       -0.0000000000
  122        0.0057143100
  123       -0.0030866900
  124        0.0000000000
  125        0.0009926700
  126       -0.0008573300
  127        0.0000000000
  128        0.0017919200
  129        0.0018645700
  130        0.0021291000
  131        0.0000748000
  132        0.0000000000
  133       -0.0000000000
  134        0.0052710000
  135        0.0059676900
  136        0.0061871400
  137        0.0006616800
  138       -0.0000000000
  139        0.0000000000
  140        0.0011166900
  141        0.0021945200
  142        0.0028010800
  143        0.0010442600
  144       -0.0000000000
  145        0.0000000000
  146       -0.0018281600
  147        0.0010863400
  148        0.0000000000
  149       -0.0008434200
  150        0.0004315700
  151        0.0000000000
  152       -0.0008544200
  153        0.0004853200
  154        0.0000000000
  155        0.0000000000
  156       -0.0013736000
  157        0.0009008800
  158        0.0000000000
  159       -0.0006348000
  160        0.0000490800
  161        0.0000000000
  162       -0.0008599800
  163        0.0004393300
  164        0.0000000000
  165       -0.0000000000
 Ene=        -20.34730000
 Spin= Alpha
 Occup=        1.00000000
    1       -0.6872169900
    2        0.0067223200
    3       -0.0343414900
    4        0.0178508800
    5        0.0035679900
    6       -0.0018253900
    7       -0.0012010200
    8        0.0000000000
    9        0.0047259500
   10        0.0031270700
   11       -0.0000000000
   12        0.0064487500
   13        0.0045926300
   14       -0.0000000000
   15        0.0005136400
   16        0.0003203100
   17        0.0000000000
   18       -0.0017291000
   19       -0.0018081000
   20       -0.0020565300
   21        0.0000625000
   22        0.0000000000
   23       -0.0000000000
   24       -0.0046124000
   25       -0.0051766500
   26       -0.0055311600
   27        0.0007964100
   28       -0.0000000000
   29       -0.0000000000
   30        0.0001131600
   31       -0.0007542200
   32       -0.0016876300
   33        0.0014187400
   34       -0.0000000000
   35       -0.0000000000
   36       -0.0018026000
   37       -0.0012332200
   38        0.0000000000
   39       -0.0007670700
   40       -0.0004846100
   41        0.0000000000
   42       -0.0008225400
   43       -0.0005571900
   44        0.0000000000
   45        0.0000000000
   46       -0.0013162700
   47       -0.0011389200
   48        0.0000000000
   49       -0.0004736300
   50       -0.0000946200
   51       -0.0000000000
   52       -0.0007930600
   53       -0.0005723100
   54        0.0000000000
   55       -0.0000000000
   56        0.0014118200
   57       -0.0000512300
   58        0.0004033300
   59       -0.0159321500
   60       -0.0053288800
   61       -0.0000000000
   62       -0.0001476200
   63       -0.0000000000
   64        0.0000000000
   65        0.0011243900
   66        0.0000000000
   67        0.0000000000
   68        0.0061286800
   69        0.0000000000
   70        0.0000000000
   71        0.0006573900
   72        0.0000000000
   73        0.0001352200
   74        0.0000728200
   75        0.0000717600
   76        0.0000000000
   77       -0.0000000000
   78        0.0000000000
   79       -0.0012082300
   80        0.0000586100
   81        0.0007762100
   82       -0.0000000000
   83        0.0000000000
   84       -0.0000000000
   85       -0.0037624000
   86       -0.0009739600
   87        0.0000784200
   88       -0.0000000000
   89        0.0000000000
   90       -0.0000000000
   91        0.0000000000
   92       -0.0002845700
   93        0.0000000000
   94        0.0000000000
   95        0.0002685400
   96       -0.0000000000
   97       -0.0000000000
   98       -0.0002030900
   99       -0.0000000000
  100        0.0000000000
  101        0.0000000000
  102       -0.0002492400
  103       -0.0000000000
  104        0.0000000000
  105        0.0007478600
  106        0.0000000000
  107       -0.0000000000
  108       -0.0001483900
  109        0.0000000000
  110       -0.0000000000
  111       -0.6872166000
  112        0.0067223200
  113       -0.0343414700
  114        0.0178508700
  115        0.0035679900
  116        0.0018253900
  117       -0.0012010100
  118        0.0000000000
  119       -0.0047259500
  120        0.0031270700
  121       -0.0000000000
  122       -0.0064487400
  123        0.0045926300
  124       -0.0000000000
  125       -0.0005136400
  126        0.0003203100
  127        0.0000000000
  128       -0.0017290900
  129       -0.0018081000
  130       -0.0020565300
  131       -0.0000625000
  132       -0.0000000000
  133       -0.0000000000
  134       -0.0046124000
  135       -0.0051766500
  136       -0.0055311500
  137       -0.0007964100
  138        0.0000000000
  139       -0.0000000000
  140        0.0001131600
  141       -0.0007542200
  142       -0.0016876300
  143       -0.0014187400
  144        0.0000000000
  145       -0.0000000000
  146        0.0018026000
  147       -0.0012332200
  148        0.0000000000
  149        0.0007670700
  150       -0.0004846100
  151        0.0000000000
  152        0.0008225400
  153       -0.0005571900
  154        0.0000000000
  155       -0.0000000000
  156        0.0013162700
  157       -0.0011389200
  158        0.0000000000
  159        0.0004736300
  160       -0.0000946200
  161       -0.0000000000
  162        0.0007930600
  163       -0.0005723100
  164        0.0000000000
  165        0.0000000000
 Ene=         -1.34898000
 Spin= Alpha
 Occup=        1.00000000
    1       -0.0052047200
    2        0.1982647000
    3        0.0514288300
    4        0.1137420300
    5       -0.0096697800
    6        0.0367186000
    7        0.0206504000
    8       -0.0000000000
    9        0.0440746400
   10        0.0241693800
   11        0.0000000000
   12        0.0090638600
   13        0.0119236700
   14        0.0000000000
   15       -0.0030716700
   16       -0.0021972900
   17       -0.0000000000
   18        0.0027963300
   19       -0.0003646100
   20       -0.0010410700
   21        0.0033497500
   22       -0.0000000000
   23       -0.0000000000
   24        0.0090137500
   25       -0.0029766600
   26       -0.0057829700
   27        0.0101636700
   28       -0.0000000000
   29       -0.0000000000
   30       -0.0018040500
   31        0.0013163000
   32       -0.0009891700
   33        0.0007022100
   34        0.0000000000
   35       -0.0000000000
   36        0.0047482000
   37        0.0007015100
   38       -0.0000000000
   39        0.0020604300
   40        0.0037669700
   41       -0.0000000000
   42       -0.0000688500
   43       -0.0000604800
   44       -0.0000000000
   45       -0.0000000000
   46        0.0053220800
   47       -0.0002737400
   48       -0.0000000000
   49        0.0016655000
   50        0.0028724600
   51       -0.0000000000
   52        0.0001469100
   53       -0.0005435600
   54       -0.0000000000
   55       -0.0000000000
   56       -0.0033220600
   57        0.4568782400
   58        0.1166222900
   59        0.2378045900
   60        0.0389261800
   61        0.0000000000
   62       -0.0415610800
   63        0.0000000000
   64        0.0000000000
   65       -0.0502016200
   66       -0.0000000000
   67       -0.0000000000
   68       -0.0075559700
   69       -0.0000000000
   70       -0.0000000000
   71       -0.0019633400
   72        0.0000000000
   73        0.0008597500
   74       -0.0025416300
   75        0.0001528400
   76       -0.0000000000
   77       -0.0000000000
   78       -0.0000000000
   79       -0.0061299100
   80       -0.0156955000
   81       -0.0129646700
   82       -0.0000000000
   83        0.0000000000
   84        0.0000000000
   85       -0.0293058400
   86       -0.0165817600
   87       -0.0156329800
   88        0.0000000000
   89       -0.0000000000
   90        0.0000000000
   91        0.0000000000
   92       -0.0014052700
   93        0.0000000000
   94        0.0000000000
   95       -0.0064170300
   96        0.0000000000
   97       -0.0000000000
   98        0.0002695200
   99        0.0000000000
  100        0.0000000000
  101        0.0000000000
  102        0.0037583400
  103        0.0000000000
  104        0.0000000000
  105        0.0007539900
  106        0.0000000000
  107        0.0000000000
  108        0.0022212900
  109        0.0000000000
  110        0.0000000000
  111       -0.0052047200
  112        0.1982647000
  113        0.0514288300
  114        0.1137420300
  115       -0.0096697800
  116       -0.0367186000
  117        0.0206504000
  118        0.0000000000
  119       -0.0440746400
  120        0.0241693800
  121       -0.0000000000
  122       -0.0090638600
  123        0.0119236700
  124        0.0000000000
  125        0.0030716700
  126       -0.0021972900
  127       -0.0000000000
  128        0.0027963300
  129       -0.0003646100
  130       -0.0010410700
  131       -0.0033497500
  132        0.0000000000
  133        0.0000000000
  134        0.0090137500
  135       -0.0029766600
  136       -0.0057829700
  137       -0.0101636700
  138       -0.0000000000
  139       -0.0000000000
  140       -0.0018040500
  141        0.0013163000
  142       -0.0009891700
  143       -0.0007022100
  144       -0.0000000000
  145        0.0000000000
  146       -0.0047482000
  147        0.0007015100
  148        0.0000000000
  149       -0.0020604300
  150        0.0037669700
  151        0.0000000000
  152        0.0000688500
  153       -0.0000604800
  154        0.0000000000
  155        0.0000000000
  156       -0.0053220800
  157       -0.0002737400
  158        0.0000000000
  159       -0.0016655000
  160        0.0028724600
  161        0.0000000000
  162       -0.0001469100
  163       -0.0005435600
  164       -0.0000000000
  165       -0.0000000000
 Ene=         -1.05256000
 Spin= Alpha
 Occup=        1.00000000
    1        0.0060439600
    2       -0.3632737600
    3       -0.0959787500
    4       -0.2303901300
    5       -0.0330018300
    6       -0.0158513000
    7       -0.0176827000
    8        0.0000000000
    9       -0.0183992800
   10       -0.0211537200
   11       -0.0000000000
   12       -0.0009332200
   13       -0.0019489500
   14       -0.0000000000
   15       -0.0012256600
   16       -0.0024909800
   17        0.0000000000
   18       -0.0006548100
   19        0.0000456300
   20       -0.0009918800
   21       -0.0018177600
   22        0.0000000000
   23        0.0000000000
   24        0.0050916900
   25        0.0033790600
   26        0.0042600000
   27       -0.0051679800
   28       -0.0000000000
   29       -0.0000000000
   30        0.0099859400
   31        0.0067695700
   32        0.0060865400
   33        0.0031587200
   34        0.0000000000
   35        0.0000000000
   36       -0.0022413700
   37       -0.0011209000
   38        0.0000000000
   39       -0.0019468400
   40       -0.0029277900
   41        0.0000000000
   42        0.0002718700
   43        0.0000596100
   44        0.0000000000
   45        0.0000000000
   46        0.0021764100
   47       -0.0018885800
   48        0.0000000000
   49       -0.0006158100
   50       -0.0005521500
   51        0.0000000000
   52        0.0012436500
   53        0.0000365600
   54        0.0000000000
   55       -0.0000000000
   56       -0.0000000000
   57       -0.0000000000
   58       -0.0000000000
   59       -0.0000000000
   60       -0.0000000000
   61        0.1253072300
   62       -0.0000000000
   63       -0.0000000000
   64        0.1432707800
   65       -0.0000000000
   66        0.0000000000
   67        0.0454471800
   68        0.0000000000
   69       -0.0000000000
   70       -0.0097604000
   71        0.0000000000
   72        0.0000000000
   73        0.0000000000
   74        0.0000000000
   75       -0.0000000000
   76       -0.0084641300
   77       -0.0000000000
   78        0.0000000000
   79        0.0000000000
   80        0.0000000000
   81        0.0000000000
   82       -0.0259730400
   83       -0.0000000000
   84        0.0000000000
   85       -0.0000000000
   86       -0.0000000000
   87        0.0000000000
   88       -0.0052891400
   89       -0.0000000000
   90        0.0000000000
   91        0.0106613800
   92       -0.0000000000
   93       -0.0000000000
   94        0.0043370100
   95       -0.0000000000
   96       -0.0000000000
   97        0.0018296900
   98       -0.0000000000
   99        0.0000000000
  100        0.0000000000
  101        0.0071933400
  102       -0.0000000000
  103        0.0000000000
  104        0.0075897600
  105       -0.0000000000
  106        0.0000000000
  107        0.0022282400
  108       -0.0000000000
  109       -0.0000000000
  110        0.0000000000
  111       -0.0060439600
  112        0.3632737600
  113        0.0959787500
  114        0.2303901300
  115        0.0330018300
  116       -0.0158513000
  117        0.0176827000
  118       -0.0000000000
  119       -0.0183992800
  120        0.0211537200
  121        0.0000000000
  122       -0.0009332200
  123        0.0019489500
  124        0.0000000000
  125       -0.0012256600
  126        0.0024909800
  127       -0.0000000000
  128        0.0006548100
  129       -0.0000456300
  130        0.0009918800
  131       -0.0018177600
  132        0.0000000000
  133       -0.0000000000
  134       -0.0050916900
  135       -0.0033790600
  136       -0.0042600000
  137       -0.0051679800
  138        0.0000000000
  139       -0.0000000000
  140       -0.0099859400
  141       -0.0067695700
  142       -0.0060865400
  143        0.0031587200
  144       -0.0000000000
  145        0.0000000000
  146       -0.0022413700
  147        0.0011209000
  148       -0.0000000000
  149       -0.0019468400
  150        0.0029277900
  151       -0.0000000000
  152        0.0002718700
  153       -0.0000596100
  154       -0.0000000000
  155       -0.0000000000
  156        0.0021764100
  157        0.0018885800
  158       -0.0000000000
  159       -0.0006158100
  160        0.0005521500
  161       -0.0000000000
  162        0.0012436500
  163       -0.0000365600
  164       -0.0000000000
  165       -0.0000000000
 Ene=         -0.82774600
 Spin= Alpha
 Occup=        1.00000000
    1        0.0025889400
    2       -0.3281307000
    3       -0.0903643600
    4       -0.2435637300
    5       -0.0604243500
    6        0.0319073500
    7        0.0322589200
    8        0.0000000000
    9        0.0323554600
   10        0.0334577700
   11       -0.0000000000
   12        0.0223540600
   13        0.0169565500
   14       -0.0000000000
   15       -0.0062041400
   16       -0.0040333700
   17        0.0000000000
   18        0.0013153100
   19        0.0002833600
   20       -0.0037232000
   21        0.0030008400
   22        0.0000000000
   23        0.0000000000
   24        0.0085676100
   25        0.0046658600
   26       -0.0042930300
   27        0.0083389300
   28       -0.0000000000
   29       -0.0000000000
   30        0.0123156500
   31        0.0069528000
   32        0.0035878000
   33        0.0042039900
   34       -0.0000000000
   35       -0.0000000000
   36        0.0019039500
   37        0.0018259700
   38        0.0000000000
   39        0.0017248400
   40        0.0020101100
   41        0.0000000000
   42        0.0008339900
   43        0.0008242200
   44        0.0000000000
   45        0.0000000000
   46        0.0045178200
   47        0.0024900600
   48        0.0000000000
   49        0.0022066000
   50        0.0031206400
   51        0.0000000000
   52        0.0007476600
   53        0.0009727100
   54        0.0000000000
   55       -0.0000000000
   56        0.0023983000
   57        0.3476492100
   58        0.0946220900
   59        0.2608353400
   60        0.1002756600
   61        0.0000000000
   62        0.0854066200
   63        0.0000000000
   64        0.0000000000
   65        0.0934866100
   66        0.0000000000
   67       -0.0000000000
   68        0.0450960800
   69        0.0000000000
   70        0.0000000000
   71       -0.0078313900
   72        0.0000000000
   73       -0.0037193200
   74       -0.0027940500
   75        0.0061937200
   76       -0.0000000000
   77        0.0000000000
   78       -0.0000000000
   79       -0.0196151600
   80       -0.0162846100
   81        0.0045011800
   82       -0.0000000000
   83       -0.0000000000
   84        0.0000000000
   85       -0.0267664200
   86       -0.0183062200
   87       -0.0141665400
   88        0.0000000000
   89       -0.0000000000
   90       -0.0000000000
   91        0.0000000000
   92        0.0040964300
   93       -0.0000000000
   94        0.0000000000
   95        0.0030572800
   96       -0.0000000000
   97        0.0000000000
   98        0.0025085100
   99       -0.0000000000
  100        0.0000000000
  101        0.0000000000
  102        0.0097696800
  103       -0.0000000000
  104        0.0000000000
  105        0.0059419100
  106        0.0000000000
  107        0.0000000000
  108        0.0042782600
  109        0.0000000000
  110       -0.0000000000
  111        0.0025889400
  112       -0.3281307000
  113       -0.0903643600
  114       -0.2435637300
  115       -0.0604243500
  116       -0.0319073500
  117        0.0322589200
  118       -0.0000000000
  119       -0.0323554600
  120        0.0334577700
  121       -0.0000000000
  122       -0.0223540600
  123        0.0169565500
  124        0.0000000000
  125        0.0062041400
  126       -0.0040333700
  127       -0.0000000000
  128        0.0013153100
  129        0.0002833600
  130       -0.0037232000
  131       -0.0030008400
  132       -0.0000000000
  133        0.0000000000