[Molden Format]
[Atoms] Angs
O       1       8    -1.15900000    -0.72900000     0.00000000
O       2       8     0.00000000     0.00000000     0.00000000
O       3       8     1.15900000    -0.72900000     0.00000000
[GTO]
  1 0
s  8 1.00
   1.5330000000E+04   5.0800000000E-04
   2.2990000000E+03   3.9290000000E-03
   5.2240000000E+02   2.0243000000E-02
   1.4730000000E+02   7.9181000000E-02
   4.7550000000E+01   2.3068700000E-01
   1.6760000000E+01   4.3311800000E-01
   6.2070000000E+00   3.5026000000E-01
   6.8820000000E-01  -8.1540000000E-03
s  8 1.00
   1.5330000000E+04  -1.1500000000E-04
   2.2990000000E+03  -8.9500000000E-04
   5.2240000000E+02  -4.6360000000E-03
   1.4730000000E+02  -1.8724000000E-02
   4.7550000000E+01  -5.8463000000E-02
   1.6760000000E+01  -1.3646300000E-01
   6.2070000000E+00  -1.7574000000E-01
   6.8820000000E-01   6.0341800000E-01
s  1 1.00
   1.7520000000E+00   1.0000000000E+00
s  1 1.00
   2.3840000000E-01   1.0000000000E+00
s  1 1.00
   7.3760000000E-02   1.0000000000E+00
p  3 1.00
   3.4460000000E+01   1.5928000000E-02
   7.7490000000E+00   9.9740000000E-02
   2.2800000000E+00   3.1049200000E-01
p  1 1.00
   7.1560000000E-01   1.0000000000E+00
p  1 1.00
   2.1400000000E-01   1.0000000000E+00
p  1 1.00
   5.9740000000E-02   1.0000000000E+00
d  1 1.00
   2.3140000000E+00   1.0000000000E+00
d  1 1.00
   6.4500000000E-01   1.0000000000E+00
d  1 1.00
   2.1400000000E-01   1.0000000000E+00
f  1 1.00
   1.4280000000E+00   1.0000000000E+00
f  1 1.00
   5.0000000000E-01   1.0000000000E+00
 
  2 0
s  8 1.00
   1.5330000000E+04   5.0800000000E-04
   2.2990000000E+03   3.9290000000E-03
   5.2240000000E+02   2.0243000000E-02
   1.4730000000E+02   7.9181000000E-02
   4.7550000000E+01   2.3068700000E-01
   1.6760000000E+01   4.3311800000E-01
   6.2070000000E+00   3.5026000000E-01
   6.8820000000E-01  -8.1540000000E-03
s  8 1.00
   1.5330000000E+04  -1.1500000000E-04
   2.2990000000E+03  -8.9500000000E-04
   5.2240000000E+02  -4.6360000000E-03
   1.4730000000E+02  -1.8724000000E-02
   4.7550000000E+01  -5.8463000000E-02
   1.6760000000E+01  -1.3646300000E-01
   6.2070000000E+00  -1.7574000000E-01
   6.8820000000E-01   6.0341800000E-01
s  1 1.00
   1.7520000000E+00   1.0000000000E+00
s  1 1.00
   2.3840000000E-01   1.0000000000E+00
s  1 1.00
   7.3760000000E-02   1.0000000000E+00
p  3 1.00
   3.4460000000E+01   1.5928000000E-02
   7.7490000000E+00   9.9740000000E-02
   2.2800000000E+00   3.1049200000E-01
p  1 1.00
   7.1560000000E-01   1.0000000000E+00
p  1 1.00
   2.1400000000E-01   1.0000000000E+00
p  1 1.00
   5.9740000000E-02   1.0000000000E+00
d  1 1.00
   2.3140000000E+00   1.0000000000E+00
d  1 1.00
   6.4500000000E-01   1.0000000000E+00
d  1 1.00
   2.1400000000E-01   1.0000000000E+00
f  1 1.00
   1.4280000000E+00   1.0000000000E+00
f  1 1.00
   5.0000000000E-01   1.0000000000E+00
 
  3 0
s  8 1.00
   1.5330000000E+04   5.0800000000E-04
   2.2990000000E+03   3.9290000000E-03
   5.2240000000E+02   2.0243000000E-02
   1.4730000000E+02   7.9181000000E-02
   4.7550000000E+01   2.3068700000E-01
   1.6760000000E+01   4.3311800000E-01
   6.2070000000E+00   3.5026000000E-01
   6.8820000000E-01  -8.1540000000E-03
s  8 1.00
   1.5330000000E+04  -1.1500000000E-04
   2.2990000000E+03  -8.9500000000E-04
   5.2240000000E+02  -4.6360000000E-03
   1.4730000000E+02  -1.8724000000E-02
   4.7550000000E+01  -5.8463000000E-02
   1.6760000000E+01  -1.3646300000E-01
   6.2070000000E+00  -1.7574000000E-01
   6.8820000000E-01   6.0341800000E-01
s  1 1.00
   1.7520000000E+00   1.0000000000E+00
s  1 1.00
   2.3840000000E-01   1.0000000000E+00
s  1 1.00
   7.3760000000E-02   1.0000000000E+00
p  3 1.00
   3.4460000000E+01   1.5928000000E-02
   7.7490000000E+00   9.9740000000E-02
   2.2800000000E+00   3.1049200000E-01
p  1 1.00
   7.1560000000E-01   1.0000000000E+00
p  1 1.00
   2.1400000000E-01   1.0000000000E+00
p  1 1.00
   5.9740000000E-02   1.0000000000E+00
d  1 1.00
   2.3140000000E+00   1.0000000000E+00
d  1 1.00
   6.4500000000E-01   1.0000000000E+00
d  1 1.00
   2.1400000000E-01   1.0000000000E+00
f  1 1.00
   1.4280000000E+00   1.0000000000E+00
f  1 1.00
   5.0000000000E-01   1.0000000000E+00
 
 
[MO]
Ene=    -2.05301E+01
Spin= Alpha
Occup=   1.0000000000
   1      -0.00091955
   2       0.00003690
   3       0.00037284
   4      -0.00572611
   5      -0.00447883
   6       0.00002806
   7      -0.00000650
   8       0.00000000
   9      -0.00032473
  10      -0.00018945
  11      -0.00000000
  12      -0.00330945
  13      -0.00122660
  14      -0.00000000
  15      -0.00090682
  16      -0.00052145
  17      -0.00000000
  18       0.00008009
  19       0.00008649
  20       0.00008030
  21      -0.00001183
  22      -0.00000000
  23       0.00000000
  24       0.00007208
  25       0.00037463
  26       0.00064818
  27      -0.00037041
  28      -0.00000000
  29      -0.00000000
  30      -0.00072543
  31       0.00034219
  32       0.00043651
  33      -0.00056597
  34      -0.00000000
  35      -0.00000000
  36      -0.00007917
  37       0.00003259
  38       0.00000000
  39      -0.00004746
  40      -0.00019168
  41       0.00000000
  42       0.00010520
  43       0.00003083
  44       0.00000000
  45       0.00000000
  46      -0.00013687
  47      -0.00008662
  48       0.00000000
  49      -0.00001102
  50      -0.00019010
  51       0.00000000
  52       0.00002552
  53      -0.00000117
  54       0.00000000
  55      -0.00000000
  56      -0.97177201
  57       0.00876182
  58      -0.05004621
  59       0.02548313
  60       0.01069480
  61      -0.00000000
  62       0.00302416
  63       0.00000000
  64       0.00000000
  65      -0.00685978
  66      -0.00000000
  67      -0.00000000
  68      -0.00752478
  69      -0.00000000
  70       0.00000000
  71      -0.00112913
  72       0.00000000
  73      -0.00228372
  74      -0.00227291
  75      -0.00315766
  76      -0.00000000
  77      -0.00000000
  78       0.00000000
  79      -0.00750205
  80      -0.00825279
  81      -0.00838367
  82      -0.00000000
  83      -0.00000000
  84      -0.00000000
  85      -0.00179281
  86      -0.00189182
  87      -0.00360870
  88       0.00000000
  89      -0.00000000
  90      -0.00000000
  91      -0.00000000
  92       0.00284902
  93       0.00000000
  94      -0.00000000
  95       0.00124174
  96       0.00000000
  97      -0.00000000
  98       0.00124283
  99       0.00000000
 100      -0.00000000
 101      -0.00000000
 102       0.00277026
 103       0.00000000
 104      -0.00000000
 105       0.00090698
 106       0.00000000
 107      -0.00000000
 108       0.00136581
 109       0.00000000
 110       0.00000000
 111      -0.00091955
 112       0.00003690
 113       0.00037284
 114      -0.00572611
 115      -0.00447883
 116      -0.00002806
 117      -0.00000650
 118      -0.00000000
 119       0.00032473
 120      -0.00018945
 121       0.00000000
 122       0.00330945
 123      -0.00122660
 124       0.00000000
 125       0.00090682
 126      -0.00052145
 127      -0.00000000
 128       0.00008009
 129       0.00008649
 130       0.00008030
 131       0.00001183
 132       0.00000000
 133      -0.00000000
 134       0.00007208
 135       0.00037463
 136       0.00064818
 137       0.00037041
 138       0.00000000
 139      -0.00000000
 140      -0.00072543
 141       0.00034219
 142       0.00043651
 143       0.00056597
 144      -0.00000000
 145       0.00000000
 146       0.00007917
 147       0.00003259
 148      -0.00000000
 149       0.00004746
 150      -0.00019168
 151      -0.00000000
 152      -0.00010520
 153       0.00003083
 154      -0.00000000
 155       0.00000000
 156       0.00013687
 157      -0.00008662
 158      -0.00000000
 159       0.00001102
 160      -0.00019010
 161      -0.00000000
 162      -0.00002552
 163      -0.00000117
 164      -0.00000000
 165       0.00000000
Ene=    -2.03473E+01
Spin= Alpha
Occup=   1.0000000000
   1      -0.68741338
   2       0.00635497
   3      -0.03488221
   4       0.01808983
   5       0.00787315
   6      -0.00187668
   7      -0.00110930
   8      -0.00000000
   9       0.00478717
  10       0.00279397
  11       0.00000000
  12       0.00571431
  13       0.00308669
  14      -0.00000000
  15       0.00099267
  16       0.00085733
  17      -0.00000000
  18      -0.00179192
  19      -0.00186457
  20      -0.00212910
  21       0.00007480
  22       0.00000000
  23       0.00000000
  24      -0.00527100
  25      -0.00596768
  26      -0.00618714
  27       0.00066168
  28      -0.00000000
  29      -0.00000000
  30      -0.00111669
  31      -0.00219452
  32      -0.00280108
  33       0.00104426
  34      -0.00000000
  35      -0.00000000
  36      -0.00182816
  37      -0.00108634
  38      -0.00000000
  39      -0.00084342
  40      -0.00043157
  41      -0.00000000
  42      -0.00085442
  43      -0.00048532
  44      -0.00000000
  45       0.00000000
  46      -0.00137360
  47      -0.00090088
  48      -0.00000000
  49      -0.00063480
  50      -0.00004908
  51      -0.00000000
  52      -0.00085998
  53      -0.00043933
  54      -0.00000000
  55      -0.00000000
  56      -0.00000000
  57       0.00000000
  58      -0.00000000
  59       0.00000000
  60       0.00000000
  61      -0.00014485
  62       0.00000000
  63      -0.00000000
  64       0.00139540
  65      -0.00000000
  66       0.00000000
  67       0.00681137
  68      -0.00000000
  69       0.00000000
  70       0.00300666
  71      -0.00000000
  72       0.00000000
  73      -0.00000000
  74      -0.00000000
  75      -0.00000000
  76       0.00004157
  77       0.00000000
  78       0.00000000
  79       0.00000000
  80      -0.00000000
  81      -0.00000000
  82      -0.00132996
  83      -0.00000000
  84      -0.00000000
  85       0.00000000
  86       0.00000000
  87      -0.00000000
  88      -0.00190417
  89      -0.00000000
  90      -0.00000000
  91       0.00006263
  92       0.00000000
  93      -0.00000000
  94       0.00006800
  95      -0.00000000
  96      -0.00000000
  97      -0.00022456
  98       0.00000000
  99      -0.00000000
 100      -0.00000000
 101       0.00060886
 102       0.00000000
 103      -0.00000000
 104       0.00052998
 105      -0.00000000
 106      -0.00000000
 107      -0.00003357
 108       0.00000000
 109      -0.00000000
 110       0.00000000
 111       0.68741377
 112      -0.00635498
 113       0.03488223
 114      -0.01808984
 115      -0.00787316
 116      -0.00187668
 117       0.00110930
 118       0.00000000
 119       0.00478717
 120      -0.00279397
 121      -0.00000000
 122       0.00571431
 123      -0.00308669
 124       0.00000000
 125       0.00099267
 126      -0.00085733
 127       0.00000000
 128       0.00179192
 129       0.00186457
 130       0.00212910
 131       0.00007480
 132       0.00000000
 133      -0.00000000
 134       0.00527100
 135       0.00596769
 136       0.00618714
 137       0.00066168
 138      -0.00000000
 139       0.00000000
 140       0.00111669
 141       0.00219452
 142       0.00280108
 143       0.00104426
 144      -0.00000000
 145       0.00000000
 146      -0.00182816
 147       0.00108634
 148       0.00000000
 149      -0.00084342
 150       0.00043157
 151       0.00000000
 152      -0.00085442
 153       0.00048532
 154       0.00000000
 155       0.00000000
 156      -0.00137360
 157       0.00090088
 158       0.00000000
 159      -0.00063480
 160       0.00004908
 161       0.00000000
 162      -0.00085998
 163       0.00043933
 164       0.00000000
 165      -0.00000000
Ene=    -2.03473E+01
Spin= Alpha
Occup=   1.0000000000
   1      -0.68721699
   2       0.00672232
   3      -0.03434149
   4       0.01785088
   5       0.00356799
   6      -0.00182539
   7      -0.00120102
   8       0.00000000
   9       0.00472595
  10       0.00312707
  11      -0.00000000
  12       0.00644875
  13       0.00459263
  14      -0.00000000
  15       0.00051364
  16       0.00032031
  17       0.00000000
  18      -0.00172910
  19      -0.00180810
  20      -0.00205653
  21       0.00006250
  22       0.00000000
  23      -0.00000000
  24      -0.00461240
  25      -0.00517665
  26      -0.00553116
  27       0.00079641
  28      -0.00000000
  29      -0.00000000
  30       0.00011316
  31      -0.00075422
  32      -0.00168763
  33       0.00141874
  34      -0.00000000
  35      -0.00000000
  36      -0.00180260
  37      -0.00123322
  38       0.00000000
  39      -0.00076707
  40      -0.00048461
  41       0.00000000
  42      -0.00082254
  43      -0.00055719
  44       0.00000000
  45       0.00000000
  46      -0.00131627
  47      -0.00113892
  48       0.00000000
  49      -0.00047363
  50      -0.00009462
  51      -0.00000000
  52      -0.00079306
  53      -0.00057231
  54       0.00000000
  55      -0.00000000
  56       0.00141182
  57      -0.00005123
  58       0.00040333
  59      -0.01593215
  60      -0.00532888
  61      -0.00000000
  62      -0.00014762
  63      -0.00000000
  64       0.00000000
  65       0.00112439
  66       0.00000000
  67       0.00000000
  68       0.00612868
  69       0.00000000
  70       0.00000000
  71       0.00065739
  72       0.00000000
  73       0.00013522
  74       0.00007282
  75       0.00007176
  76       0.00000000
  77      -0.00000000
  78       0.00000000
  79      -0.00120823
  80       0.00005861
  81       0.00077621
  82      -0.00000000
  83       0.00000000
  84      -0.00000000
  85      -0.00376240
  86      -0.00097396
  87       0.00007842
  88      -0.00000000
  89       0.00000000
  90      -0.00000000
  91       0.00000000
  92      -0.00028457
  93       0.00000000
  94       0.00000000
  95       0.00026854
  96      -0.00000000
  97      -0.00000000
  98      -0.00020309
  99      -0.00000000
 100       0.00000000
 101       0.00000000
 102      -0.00024924
 103      -0.00000000
 104       0.00000000
 105       0.00074786
 106       0.00000000
 107      -0.00000000
 108      -0.00014839
 109       0.00000000
 110      -0.00000000
 111      -0.68721660
 112       0.00672232
 113      -0.03434147
 114       0.01785087
 115       0.00356799
 116       0.00182539
 117      -0.00120101
 118       0.00000000
 119      -0.00472595
 120       0.00312707
 121      -0.00000000
 122      -0.00644874
 123       0.00459263
 124      -0.00000000
 125      -0.00051364
 126       0.00032031
 127       0.00000000
 128      -0.00172909
 129      -0.00180810
 130      -0.00205653
 131      -0.00006250
 132      -0.00000000
 133      -0.00000000
 134      -0.00461240
 135      -0.00517665
 136      -0.00553115
 137      -0.00079641
 138       0.00000000
 139      -0.00000000
 140       0.00011316
 141      -0.00075422
 142      -0.00168763
 143      -0.00141874
 144       0.00000000
 145      -0.00000000
 146       0.00180260
 147      -0.00123322
 148       0.00000000
 149       0.00076707
 150      -0.00048461
 151       0.00000000
 152       0.00082254
 153      -0.00055719
 154       0.00000000
 155      -0.00000000
 156       0.00131627
 157      -0.00113892
 158       0.00000000
 159       0.00047363
 160      -0.00009462
 161      -0.00000000
 162       0.00079306
 163      -0.00057231
 164       0.00000000
 165       0.00000000
Ene=    -1.34898E+00
Spin= Alpha
Occup=   1.0000000000
   1      -0.00520472
   2       0.19826470
   3       0.05142883
   4       0.11374203
   5      -0.00966978
   6       0.03671860
   7       0.02065040
   8      -0.00000000
   9       0.04407464
  10       0.02416938
  11       0.00000000
  12       0.00906386
  13       0.01192367
  14       0.00000000
  15      -0.00307167
  16      -0.00219729
  17      -0.00000000
  18       0.00279633
  19      -0.00036461
  20      -0.00104107
  21       0.00334975
  22      -0.00000000
  23      -0.00000000
  24       0.00901375
  25      -0.00297666
  26      -0.00578297
  27       0.01016367
  28      -0.00000000
  29      -0.00000000
  30      -0.00180405
  31       0.00131630
  32      -0.00098917
  33       0.00070221
  34       0.00000000
  35      -0.00000000
  36       0.00474820
  37       0.00070151
  38      -0.00000000
  39       0.00206043
  40       0.00376697
  41      -0.00000000
  42      -0.00006885
  43      -0.00006048
  44      -0.00000000
  45      -0.00000000
  46       0.00532208
  47      -0.00027374
  48      -0.00000000
  49       0.00166550
  50       0.00287246
  51      -0.00000000
  52       0.00014691
  53      -0.00054356
  54      -0.00000000
  55      -0.00000000
  56      -0.00332206
  57       0.45687824
  58       0.11662229
  59       0.23780459
  60       0.03892618
  61       0.00000000
  62      -0.04156108
  63       0.00000000
  64       0.00000000
  65      -0.05020162
  66      -0.00000000
  67      -0.00000000
  68      -0.00755597
  69      -0.00000000
  70      -0.00000000
  71      -0.00196334
  72       0.00000000
  73       0.00085975
  74      -0.00254163
  75       0.00015284
  76      -0.00000000
  77      -0.00000000
  78      -0.00000000
  79      -0.00612991
  80      -0.01569550
  81      -0.01296467
  82      -0.00000000
  83       0.00000000
  84       0.00000000
  85      -0.02930584
  86      -0.01658176
  87      -0.01563298
  88       0.00000000
  89      -0.00000000
  90       0.00000000
  91       0.00000000
  92      -0.00140527
  93       0.00000000
  94       0.00000000
  95      -0.00641703
  96       0.00000000
  97      -0.00000000
  98       0.00026952
  99       0.00000000
 100       0.00000000
 101       0.00000000
 102       0.00375834
 103       0.00000000
 104       0.00000000
 105       0.00075399
 106       0.00000000
 107       0.00000000
 108       0.00222129
 109       0.00000000
 110       0.00000000
 111      -0.00520472
 112       0.19826470
 113       0.05142883
 114       0.11374203
 115      -0.00966978
 116      -0.03671860
 117       0.02065040
 118       0.00000000
 119      -0.04407464
 120       0.02416938
 121      -0.00000000
 122      -0.00906386
 123       0.01192367
 124       0.00000000
 125       0.00307167
 126      -0.00219729
 127      -0.00000000
 128       0.00279633
 129      -0.00036461
 130      -0.00104107
 131      -0.00334975
 132       0.00000000
 133       0.00000000
 134       0.00901375
 135      -0.00297666
 136      -0.00578297
 137      -0.01016367
 138      -0.00000000
 139      -0.00000000
 140      -0.00180405
 141       0.00131630
 142      -0.00098917
 143      -0.00070221
 144      -0.00000000
 145       0.00000000
 146      -0.00474820
 147       0.00070151
 148       0.00000000
 149      -0.00206043
 150       0.00376697
 151       0.00000000
 152       0.00006885
 153      -0.00006048
 154       0.00000000
 155       0.00000000
 156      -0.00532208
 157      -0.00027374
 158       0.00000000
 159      -0.00166550
 160       0.00287246
 161       0.00000000
 162      -0.00014691
 163      -0.00054356
 164      -0.00000000
 165      -0.00000000
Ene=    -1.05256E+00
Spin= Alpha
Occup=   1.0000000000
   1       0.00604396
   2      -0.36327376
   3      -0.09597875
   4      -0.23039013
   5      -0.03300183
   6      -0.01585130
   7      -0.01768270
   8       0.00000000
   9      -0.01839928
  10      -0.02115372
  11      -0.00000000
  12      -0.00093322
  13      -0.00194895
  14      -0.00000000
  15      -0.00122566
  16      -0.00249098
  17       0.00000000
  18      -0.00065481
  19       0.00004563
  20      -0.00099188
  21      -0.00181776
  22       0.00000000
  23       0.00000000
  24       0.00509169
  25       0.00337906
  26       0.00426000
  27      -0.00516798
  28      -0.00000000
  29      -0.00000000
  30       0.00998594
  31       0.00676957
  32       0.00608654
  33       0.00315872
  34       0.00000000
  35       0.00000000
  36      -0.00224137
  37      -0.00112090
  38       0.00000000
  39      -0.00194684
  40      -0.00292779
  41       0.00000000
  42       0.00027187
  43       0.00005961
  44       0.00000000
  45       0.00000000
  46       0.00217641
  47      -0.00188858
  48       0.00000000
  49      -0.00061581
  50      -0.00055215
  51       0.00000000
  52       0.00124365
  53       0.00003656
  54       0.00000000
  55      -0.00000000
  56      -0.00000000
  57      -0.00000000
  58      -0.00000000
  59      -0.00000000
  60      -0.00000000
  61       0.12530723
  62      -0.00000000
  63      -0.00000000
  64       0.14327078
  65      -0.00000000
  66       0.00000000
  67       0.04544718
  68       0.00000000
  69      -0.00000000
  70      -0.00976040
  71       0.00000000
  72       0.00000000
  73       0.00000000
  74       0.00000000
  75      -0.00000000
  76      -0.00846413
  77      -0.00000000
  78       0.00000000
  79       0.00000000
  80       0.00000000
  81       0.00000000
  82      -0.02597304
  83      -0.00000000
  84       0.00000000
  85      -0.00000000
  86      -0.00000000
  87       0.00000000
  88      -0.00528914
  89      -0.00000000
  90       0.00000000
  91       0.01066138
  92      -0.00000000
  93      -0.00000000
  94       0.00433701
  95      -0.00000000
  96      -0.00000000
  97       0.00182969
  98      -0.00000000
  99       0.00000000
 100       0.00000000
 101       0.00719334
 102      -0.00000000
 103       0.00000000
 104       0.00758976
 105      -0.00000000
 106       0.00000000
 107       0.00222824
 108      -0.00000000
 109      -0.00000000
 110       0.00000000
 111      -0.00604396
 112       0.36327376
 113       0.09597875
 114       0.23039013
 115       0.03300183
 116      -0.01585130
 117       0.01768270
 118      -0.00000000
 119      -0.01839928
 120       0.02115372
 121       0.00000000
 122      -0.00093322
 123       0.00194895
 124       0.00000000
 125      -0.00122566
 126       0.00249098
 127      -0.00000000
 128       0.00065481
 129      -0.00004563
 130       0.00099188
 131      -0.00181776
 132       0.00000000
 133      -0.00000000
 134      -0.00509169
 135      -0.00337906
 136      -0.00426000
 137      -0.00516798
 138       0.00000000
 139      -0.00000000
 140      -0.00998594
 141      -0.00676957
 142      -0.00608654
 143       0.00315872
 144      -0.00000000
 145       0.00000000
 146      -0.00224137
 147       0.00112090
 148      -0.00000000
 149      -0.00194684
 150       0.00292779
 151      -0.00000000
 152       0.00027187
 153      -0.00005961
 154      -0.00000000
 155      -0.00000000
 156       0.00217641
 157       0.00188858
 158      -0.00000000
 159      -0.00061581
 160       0.00055215
 161      -0.00000000
 162       0.00124365
 163      -0.00003656
 164      -0.00000000
 165      -0.00000000
Ene=    -8.27746E-01
Spin= Alpha
Occup=   1.0000000000
   1       0.00258894
   2      -0.32813070
   3      -0.09036436
   4      -0.24356373
   5      -0.06042435
   6       0.03190735
   7       0.03225892
   8       0.00000000
   9       0.03235546
  10       0.03345777
  11      -0.00000000
  12       0.02235406
  13       0.01695655
  14      -0.00000000
  15      -0.00620414
  16      -0.00403337
  17       0.00000000
  18       0.00131531
  19       0.00028336
  20      -0.00372320
  21       0.00300084
  22       0.00000000
  23       0.00000000
  24       0.00856761
  25       0.00466586
  26      -0.00429303
  27       0.00833893
  28      -0.00000000
  29      -0.00000000
  30       0.01231565
  31       0.00695280
  32       0.00358780
  33       0.00420399
  34      -0.00000000
  35      -0.00000000
  36       0.00190395
  37       0.00182597
  38       0.00000000
  39       0.00172484
  40       0.00201011
  41       0.00000000
  42       0.00083399
  43       0.00082422
  44       0.00000000
  45       0.00000000
  46       0.00451782
  47       0.00249006
  48       0.00000000
  49       0.00220660
  50       0.00312064
  51       0.00000000
  52       0.00074766
  53       0.00097271
  54       0.00000000
  55      -0.00000000
  56       0.00239830
  57       0.34764921
  58       0.09462209
  59       0.26083534
  60       0.10027566
  61       0.00000000
  62       0.08540662
  63       0.00000000
  64       0.00000000
  65       0.09348661
  66       0.00000000
  67      -0.00000000
  68       0.04509608
  69       0.00000000
  70       0.00000000
  71      -0.00783139
  72       0.00000000
  73      -0.00371932
  74      -0.00279405
  75       0.00619372
  76      -0.00000000
  77       0.00000000
  78      -0.00000000
  79      -0.01961516
  80      -0.01628461
  81       0.00450118
  82      -0.00000000
  83      -0.00000000
  84       0.00000000
  85      -0.02676642
  86      -0.01830622
  87      -0.01416654
  88       0.00000000
  89      -0.00000000
  90      -0.00000000
  91       0.00000000
  92       0.00409643
  93      -0.00000000
  94       0.00000000
  95       0.00305728
  96      -0.00000000
  97       0.00000000
  98       0.00250851
  99      -0.00000000
 100       0.00000000
 101       0.00000000
 102       0.00976968
 103      -0.00000000
 104       0.00000000
 105       0.00594191
 106       0.00000000
 107       0.00000000
 108       0.00427826
 109       0.00000000
 110      -0.00000000
 111       0.00258894
 112      -0.32813070
 113      -0.09036436
 114      -0.24356373
 115      -0.06042435
 116      -0.03190735
 117       0.03225892
 118      -0.00000000
 119      -0.03235546
 120       0.03345777
 121      -0.00000000
 122      -0.02235406
 123       0.01695655
 124       0.00000000
 125       0.00620414
 126      -0.00403337
 127      -0.00000000
 128       0.00131531
 129       0.00028336
 130      -0.00372320
 131      -0.00300084
 132      -0.00000000
 133       0.00000000
 134       0.00856761
 135       0.00466586
 136      -0.00429303
 137      -0.00833893
 138      -0.00000000
 139      -0.00000000
 140       0.01231565
 141       0.00695280
 142       0.00358780
 143      -0.00420399
 144       0.00000000
 145       0.00000000
 146      -0.00190395
 147       0.00182597
 148       0.00000000
 149      -0.00172484
 150       0.00201011
 151      -0.00000000
 152      -0.00083399
 153       0.00082422
 154       0.00000000
 155       0.00000000
 156      -0.00451782
 157       0.00249006
 158      -0.00000000
 159      -0.00220660
 160       0.00312064
 161      -0.00000000
 162      -0.00074766
 163       0.00097271
 164      -0.00000000
 165      -0.00000000
Ene=    -5.43446E-01
Spin= Alpha
Occup=   1.0000000000
   1      -0.00000000
   2      -0.00000000
   3       0.00000000
   4      -0.00000000
   5      -0.00000000
   6       0.00000000
   7      -0.00000000
   8      -0.11027996
   9       0.00000000
  10       0.00000000
  11      -0.12631607
  12      -0.00000000
  13      -0.00000000
  14      -0.05823910
  15      -0.00000000
  16      -0.00000000
  17      -0.00532693
  18       0.00000000
  19       0.00000000
  20       0.00000000
  21      -0.00000000
  22      -0.00369008
  23      -0.00225640
  24       0.00000000
  25       0.00000000
  26       0.00000000
  27       0.00000000
  28      -0.01173161
  29      -0.00722028
  30      -0.00000000
  31      -0.00000000
  32      -0.00000000
  33      -0.00000000
  34       0.00291713
  35       0.00184802
  36       0.00000000
  37       0.00000000
  38      -0.00420141
  39       0.00000000
  40       0.00000000
  41      -0.00486287
  42       0.00000000
  43       0.00000000
  44      -0.00264058
  45      -0.00249155
  46       0.00000000
  47       0.00000000
  48      -0.00804304
  49       0.00000000
  50       0.00000000
  51      -0.00545824
  52       0.00000000
  53       0.00000000
  54      -0.00409499
  55      -0.00164261
  56      -0.00000000
  57      -0.00000000
  58      -0.00000000
  59       0.00000000
  60       0.00000000
  61      -0.00000000
  62       0.00000000
  63      -0.35440945
  64       0.00000000
  65       0.00000000
  66      -0.41242068
  67      -0.00000000
  68      -0.00000000
  69      -0.20310283
  70      -0.00000000
  71      -0.00000000
  72      -0.01116378
  73      -0.00000000
  74       0.00000000
  75       0.00000000
  76       0.00000000
  77      -0.00000000
  78       0.00489132
  79      -0.00000000
  80      -0.00000000
  81      -0.00000000
  82      -0.00000000
  83      -0.00000000
  84       0.01144374
  85       0.00000000
  86       0.00000000
  87       0.00000000
  88       0.00000000
  89       0.00000000
  90      -0.00298410
  91       0.00000000
  92       0.00000000
  93      -0.01377770
  94       0.00000000
  95       0.00000000
  96      -0.00852350
  97       0.00000000
  98       0.00000000
  99      -0.00458892
 100       0.00000000
 101       0.00000000
 102       0.00000000
 103      -0.02037652
 104       0.00000000
 105       0.00000000
 106      -0.00881582
 107       0.00000000
 108       0.00000000
 109      -0.00830334
 110       0.00000000
 111       0.00000000
 112       0.00000000
 113       0.00000000
 114       0.00000000
 115      -0.00000000
 116       0.00000000
 117      -0.00000000
 118      -0.11027996
 119       0.00000000
 120       0.00000000
 121      -0.12631607
 122      -0.00000000
 123       0.00000000
 124      -0.05823910
 125       0.00000000
 126      -0.00000000
 127      -0.00532693
 128       0.00000000
 129      -0.00000000
 130      -0.00000000
 131       0.00000000
 132       0.00369008
 133      -0.00225640
 134       0.00000000
 135       0.00000000
 136       0.00000000
 137      -0.00000000
 138       0.01173161
 139      -0.00722028
 140       0.00000000
 141       0.00000000
 142       0.00000000
 143      -0.00000000
 144      -0.00291713
 145       0.00184802
 146      -0.00000000
 147      -0.00000000
 148      -0.00420141
 149      -0.00000000
 150      -0.00000000
 151      -0.00486287
 152       0.00000000
 153      -0.00000000
 154      -0.00264058
 155       0.00249155
 156       0.00000000
 157      -0.00000000
 158      -0.00804304
 159       0.00000000
 160       0.00000000
 161      -0.00545824
 162       0.00000000
 163       0.00000000
 164      -0.00409499
 165       0.00164261